 Entering Gaussian System, Link 0=/gaussian/g03/g03
 Input=n2o3.nbo.com
 Output=n2o3.nbo.log
 Initial command:
 /gaussian/g03/l1.exe /scratch/Gau-4975.inp -scrdir=/scratch/
 Entering Link 1 = /gaussian/g03/l1.exe PID=      4976.
  
 Copyright (c) 1988,1990,1992,1993,1995,1998,2003, Gaussian, Inc.
                  All Rights Reserved.
  
 This is the Gaussian(R) 03 program.  It is based on the
 the Gaussian(R) 98 system (copyright 1998, Gaussian, Inc.),
 the Gaussian(R) 94 system (copyright 1995, Gaussian, Inc.),
 the Gaussian 92(TM) system (copyright 1992, Gaussian, Inc.),
 the Gaussian 90(TM) system (copyright 1990, Gaussian, Inc.),
 the Gaussian 88(TM) system (copyright 1988, Gaussian, Inc.),
 the Gaussian 86(TM) system (copyright 1986, Carnegie Mellon
 University), and the Gaussian 82(TM) system (copyright 1983,
 Carnegie Mellon University). Gaussian is a federally registered
 trademark of Gaussian, Inc.
  
 This software contains proprietary and confidential information,
 including trade secrets, belonging to Gaussian, Inc.
  
 This software is provided under written license and may be
 used, copied, transmitted, or stored only in accord with that
 written license.
  
 The following legend is applicable only to US Government
 contracts under DFARS:
  
                    RESTRICTED RIGHTS LEGEND
  
 Use, duplication or disclosure by the US Government is subject
 to restrictions as set forth in subparagraph (c)(1)(ii) of the
 Rights in Technical Data and Computer Software clause at DFARS
 252.227-7013.
  
 Gaussian, Inc.
 Carnegie Office Park, Building 6, Pittsburgh, PA 15106 USA
  
 The following legend is applicable only to US Government
 contracts under FAR:
  
                    RESTRICTED RIGHTS LEGEND
  
 Use, reproduction and disclosure by the US Government is subject
 to restrictions as set forth in subparagraph (c) of the
 Commercial Computer Software - Restricted Rights clause at FAR
 52.227-19.
  
 Gaussian, Inc.
 Carnegie Office Park, Building 6, Pittsburgh, PA 15106 USA
  
  
 ---------------------------------------------------------------
 Warning -- This program may not be used in any manner that
 competes with the business of Gaussian, Inc. or will provide
 assistance to any competitor of Gaussian, Inc.  The licensee
 of this program is prohibited from giving any competitor of
 Gaussian, Inc. access to this program.  By using this program,
 the user acknowledges that Gaussian, Inc. is engaged in the
 business of creating and licensing software in the field of
 computational chemistry and represents and warrants to the
 licensee that it is not a competitor of Gaussian, Inc. and that
 it will not use this program in any manner prohibited above.
 ---------------------------------------------------------------
  

 Cite this work as:
 Gaussian 03, Revision B.05,
 M. J. Frisch, G. W. Trucks, H. B. Schlegel, G. E. Scuseria, 
 M. A. Robb, J. R. Cheeseman, J. A. Montgomery, Jr., T. Vreven, 
 K. N. Kudin, J. C. Burant, J. M. Millam, S. S. Iyengar, J. Tomasi, 
 V. Barone, B. Mennucci, M. Cossi, G. Scalmani, N. Rega, 
 G. A. Petersson, H. Nakatsuji, M. Hada, M. Ehara, K. Toyota, 
 R. Fukuda, J. Hasegawa, M. Ishida, T. Nakajima, Y. Honda, O. Kitao, 
 H. Nakai, M. Klene, X. Li, J. E. Knox, H. P. Hratchian, J. B. Cross, 
 C. Adamo, J. Jaramillo, R. Gomperts, R. E. Stratmann, O. Yazyev, 
 A. J. Austin, R. Cammi, C. Pomelli, J. W. Ochterski, P. Y. Ayala, 
 K. Morokuma, G. A. Voth, P. Salvador, J. J. Dannenberg, 
 V. G. Zakrzewski, S. Dapprich, A. D. Daniels, M. C. Strain, 
 O. Farkas, D. K. Malick, A. D. Rabuck, K. Raghavachari, 
 J. B. Foresman, J. V. Ortiz, Q. Cui, A. G. Baboul, S. Clifford, 
 J. Cioslowski, B. B. Stefanov, G. Liu, A. Liashenko, P. Piskorz, 
 I. Komaromi, R. L. Martin, D. J. Fox, T. Keith, M. A. Al-Laham, 
 C. Y. Peng, A. Nanayakkara, M. Challacombe, P. M. W. Gill, 
 B. Johnson, W. Chen, M. W. Wong, C. Gonzalez, and J. A. Pople, 
 Gaussian, Inc., Pittsburgh PA, 2003.
 
 **********************************************
 Gaussian 03:  x86-Linux-G03RevB.05  8-Nov-2003
                   9-Sep-2008 
 **********************************************
 %chk=../CHK/N2O3.chk
 -----------------------------------------------------------
 # b3lyp/6-31g* freq gfprint pop=(full,nboread) symm=(loose)
 -----------------------------------------------------------
 1/10=4,30=1,38=1/1,3;
 2/17=4,18=3,40=1/2;
 3/5=1,6=6,7=1,11=2,16=1,24=100,25=1,30=1,74=-5/1,2,3;
 4//1;
 5/5=2,38=5/2;
 8/6=4,10=90,11=11/1;
 11/6=1,8=1,9=11,15=111,16=1/1,2,10;
 10/6=1/2;
 6/7=3,18=1,28=1,40=1/1,7;
 7/8=1,10=1,25=1/1,2,3,16;
 1/10=4,30=1/3;
 99//99;
 ---------------------------------------
 InChI=1/H3N2O3/c3-1-2(4)5/h1,3H,(H,4,5)
 ---------------------------------------
 Symbolic Z-matrix:
 Charge =  0 Multiplicity = 1
 O                     0.19766  -1.77845   0. 
 N                    -0.71129  -1.0777    0. 
 O                    -0.7829    1.55472   0. 
 O                     1.20761   0.61042   0. 
 N                     0.        0.63578   0. 
 

 GradGradGradGradGradGradGradGradGradGradGradGradGradGradGradGradGradGrad
 Berny optimization.
 Initialization pass.
 Trust Radius=3.00D-01 FncErr=1.00D-07 GrdErr=1.00D-07
 Number of steps in this run=   2 maximum allowed number of steps=   2.
 GradGradGradGradGradGradGradGradGradGradGradGradGradGradGradGradGradGrad

                          Input orientation:                          
 ---------------------------------------------------------------------
 Center     Atomic     Atomic              Coordinates (Angstroms)
 Number     Number      Type              X           Y           Z
 ---------------------------------------------------------------------
    1          8             0        0.197660   -1.778450    0.000000
    2          7             0       -0.711290   -1.077700    0.000000
    3          8             0       -0.782900    1.554720    0.000000
    4          8             0        1.207610    0.610420    0.000000
    5          7             0        0.000000    0.635780    0.000000
 ---------------------------------------------------------------------
                    Distance matrix (angstroms):
                    1          2          3          4          5
     1  O    0.000000
     2  N    1.147711   0.000000
     3  O    3.474409   2.633394   0.000000
     4  O    2.593588   2.555763   2.203142   0.000000
     5  N    2.422308   1.855249   1.207221   1.207876   0.000000
 Stoichiometry    N2O3
 Framework group  CS[SG(N2O3)]
 Deg. of freedom     7
 Full point group                 CS      NOp   2
 Largest Abelian subgroup         CS      NOp   2
 Largest concise Abelian subgroup C1      NOp   1
                         Standard orientation:                         
 ---------------------------------------------------------------------
 Center     Atomic     Atomic              Coordinates (Angstroms)
 Number     Number      Type              X           Y           Z
 ---------------------------------------------------------------------
    1          8             0        0.197667   -1.778452    0.000000
    2          7             0       -0.711285   -1.077704    0.000000
    3          8             0       -0.782903    1.554716    0.000000
    4          8             0        1.207610    0.610421    0.000000
    5          7             0        0.000000    0.635778    0.000000
 ---------------------------------------------------------------------
 Rotational constants (GHZ):     12.4010799      4.3112850      3.1991038
 Standard basis: 6-31G(d) (6D, 7F)
 AO basis set:
 Atom O1       Shell     1 S   6     bf    1 -     1          0.373536486262         -3.360786338971          0.000000000000
      0.5484671660D+04  0.1831074430D-02
      0.8252349460D+03  0.1395017220D-01
      0.1880469580D+03  0.6844507810D-01
      0.5296450000D+02  0.2327143360D+00
      0.1689757040D+02  0.4701928980D+00
      0.5799635340D+01  0.3585208530D+00
 Atom O1       Shell     2 SP   3    bf    2 -     5          0.373536486262         -3.360786338971          0.000000000000
      0.1553961625D+02 -0.1107775495D+00  0.7087426823D-01
      0.3599933586D+01 -0.1480262627D+00  0.3397528391D+00
      0.1013761750D+01  0.1130767015D+01  0.7271585773D+00
 Atom O1       Shell     3 SP   1    bf    6 -     9          0.373536486262         -3.360786338971          0.000000000000
      0.2700058226D+00  0.1000000000D+01  0.1000000000D+01
 Atom O1       Shell     4 D   1     bf   10 -    15          0.373536486262         -3.360786338971          0.000000000000
      0.8000000000D+00  0.1000000000D+01
 Atom N2       Shell     5 S   6     bf   16 -    16         -1.344133919975         -2.036565727405          0.000000000000
      0.4173511460D+04  0.1834772160D-02
      0.6274579110D+03  0.1399462700D-01
      0.1429020930D+03  0.6858655181D-01
      0.4023432930D+02  0.2322408730D+00
      0.1282021290D+02  0.4690699481D+00
      0.4390437010D+01  0.3604551991D+00
 Atom N2       Shell     6 SP   3    bf   17 -    20         -1.344133919975         -2.036565727405          0.000000000000
      0.1162636186D+02 -0.1149611817D+00  0.6757974388D-01
      0.2716279807D+01 -0.1691174786D+00  0.3239072959D+00
      0.7722183966D+00  0.1145851947D+01  0.7408951398D+00
 Atom N2       Shell     7 SP   1    bf   21 -    24         -1.344133919975         -2.036565727405          0.000000000000
      0.2120314975D+00  0.1000000000D+01  0.1000000000D+01
 Atom N2       Shell     8 D   1     bf   25 -    30         -1.344133919975         -2.036565727405          0.000000000000
      0.8000000000D+00  0.1000000000D+01
 Atom O3       Shell     9 S   6     bf   31 -    31         -1.479471621713          2.937986749945          0.000000000000
      0.5484671660D+04  0.1831074430D-02
      0.8252349460D+03  0.1395017220D-01
      0.1880469580D+03  0.6844507810D-01
      0.5296450000D+02  0.2327143360D+00
      0.1689757040D+02  0.4701928980D+00
      0.5799635340D+01  0.3585208530D+00
 Atom O3       Shell    10 SP   3    bf   32 -    35         -1.479471621713          2.937986749945          0.000000000000
      0.1553961625D+02 -0.1107775495D+00  0.7087426823D-01
      0.3599933586D+01 -0.1480262627D+00  0.3397528391D+00
      0.1013761750D+01  0.1130767015D+01  0.7271585773D+00
 Atom O3       Shell    11 SP   1    bf   36 -    39         -1.479471621713          2.937986749945          0.000000000000
      0.2700058226D+00  0.1000000000D+01  0.1000000000D+01
 Atom O3       Shell    12 D   1     bf   40 -    45         -1.479471621713          2.937986749945          0.000000000000
      0.8000000000D+00  0.1000000000D+01
 Atom O4       Shell    13 S   6     bf   46 -    46          2.282052315429          1.153529260329          0.000000000000
      0.5484671660D+04  0.1831074430D-02
      0.8252349460D+03  0.1395017220D-01
      0.1880469580D+03  0.6844507810D-01
      0.5296450000D+02  0.2327143360D+00
      0.1689757040D+02  0.4701928980D+00
      0.5799635340D+01  0.3585208530D+00
 Atom O4       Shell    14 SP   3    bf   47 -    50          2.282052315429          1.153529260329          0.000000000000
      0.1553961625D+02 -0.1107775495D+00  0.7087426823D-01
      0.3599933586D+01 -0.1480262627D+00  0.3397528391D+00
      0.1013761750D+01  0.1130767015D+01  0.7271585773D+00
 Atom O4       Shell    15 SP   1    bf   51 -    54          2.282052315429          1.153529260329          0.000000000000
      0.2700058226D+00  0.1000000000D+01  0.1000000000D+01
 Atom O4       Shell    16 D   1     bf   55 -    60          2.282052315429          1.153529260329          0.000000000000
      0.8000000000D+00  0.1000000000D+01
 Atom N5       Shell    17 S   6     bf   61 -    61          0.000000000000          1.201446103059          0.000000000000
      0.4173511460D+04  0.1834772160D-02
      0.6274579110D+03  0.1399462700D-01
      0.1429020930D+03  0.6858655181D-01
      0.4023432930D+02  0.2322408730D+00
      0.1282021290D+02  0.4690699481D+00
      0.4390437010D+01  0.3604551991D+00
 Atom N5       Shell    18 SP   3    bf   62 -    65          0.000000000000          1.201446103059          0.000000000000
      0.1162636186D+02 -0.1149611817D+00  0.6757974388D-01
      0.2716279807D+01 -0.1691174786D+00  0.3239072959D+00
      0.7722183966D+00  0.1145851947D+01  0.7408951398D+00
 Atom N5       Shell    19 SP   1    bf   66 -    69          0.000000000000          1.201446103059          0.000000000000
      0.2120314975D+00  0.1000000000D+01  0.1000000000D+01
 Atom N5       Shell    20 D   1     bf   70 -    75          0.000000000000          1.201446103059          0.000000000000
      0.8000000000D+00  0.1000000000D+01
 There are    55 symmetry adapted basis functions of A'  symmetry.
 There are    20 symmetry adapted basis functions of A"  symmetry.
 Integral buffers will be    262144 words long.
 Raffenetti 2 integral format.
 Two-electron integral symmetry is turned on.
    75 basis functions,   140 primitive gaussians,    75 cartesian basis functions
    19 alpha electrons       19 beta electrons
       nuclear repulsion energy       162.1374189440 Hartrees.
 NAtoms=    5 NActive=    5 NUniq=    5 SFac= 1.00D+00 NAtFMM=   60 Big=F
 One-electron integrals computed using PRISM.
 NBasis=    75 RedAO= T  NBF=    55    20
 NBsUse=    75 1.00D-06 NBFU=    55    20
 Harris functional with IExCor=  402 diagonalized for initial guess.
 ExpMin= 2.12D-01 ExpMax= 5.48D+03 ExpMxC= 8.25D+02 IAcc=1 IRadAn=         1 AccDes= 1.00D-06
 HarFok:  IExCor= 402 AccDes= 1.00D-06 IRadAn=         1 IDoV=1
 ScaDFX=  1.000000  1.000000  1.000000  1.000000
 Initial guess orbital symmetries:
       Occupied  (A') (A') (A') (A') (A') (A') (A') (A') (A') (A')
                 (A') (A') (A") (A") (A') (A') (A") (A') (A')
       Virtual   (A") (A") (A') (A') (A') (A') (A') (A') (A") (A')
                 (A') (A') (A") (A') (A') (A") (A') (A") (A') (A")
                 (A') (A') (A') (A') (A') (A") (A") (A') (A") (A')
                 (A") (A') (A") (A') (A') (A") (A') (A") (A') (A')
                 (A") (A') (A') (A') (A") (A") (A') (A') (A') (A')
                 (A') (A') (A') (A') (A') (A')
 The electronic state of the initial guess is 1-A'.
 Requested convergence on RMS density matrix=1.00D-08 within 128 cycles.
 Requested convergence on MAX density matrix=1.00D-06.
 Requested convergence on             energy=1.00D-06.
 No special actions if energy rises.
 Keep R1 integrals in memory in canonical form, NReq=     4785667.
 Integral accuracy reduced to 1.0D-05 until final iterations.
 EnCoef did     2 forward-backward iterations
 EnCoef did     2 forward-backward iterations
 Initial convergence to 1.0D-05 achieved.  Increase integral accuracy.
 SCF Done:  E(RB+HF-LYP) =  -334.975596432     A.U. after   18 cycles
             Convg  =    0.5304D-08             -V/T =  2.0086
             S**2   =   0.0000
 Range of M.O.s used for correlation:     1    75
 NBasis=    75 NAE=    19 NBE=    19 NFC=     0 NFV=     0
 NROrb=     75 NOA=    19 NOB=    19 NVA=    56 NVB=    56
 Symmetrizing basis deriv contribution to polar:
 IMax=3 JMax=2 DiffMx= 0.00D+00
 G2DrvN: will do    6 centers at a time, making    1 passes doing MaxLOS=2.
 FoFDir/FoFCou used for L=0 through L=2.
          Differentiating once with respect to electric field.
                with respect to dipole field.
          Differentiating once with respect to nuclear coordinates.
          Store integrals in memory, NReq=     4493479.
          There are  18 degrees of freedom in the 1st order CPHF.
    15 vectors were produced by pass  0.
 AX will form  15 AO Fock derivatives at one time.
    15 vectors were produced by pass  1.
    15 vectors were produced by pass  2.
    15 vectors were produced by pass  3.
    15 vectors were produced by pass  4.
    15 vectors were produced by pass  5.
    10 vectors were produced by pass  6.
     2 vectors were produced by pass  7.
 Inv2:  IOpt= 1 Iter= 1 AM= 1.40D-15 Conv= 1.00D-12.
 Inverted reduced A of dimension  102 with in-core refinement.
 Isotropic polarizability for W=    0.000000       28.26 Bohr**3.
 End of Minotr Frequency-dependent properties file   721 does not exist.

 **********************************************************************

            Population analysis using the SCF density.

 **********************************************************************

 Orbital symmetries:
       Occupied  (A') (A') (A') (A') (A') (A') (A') (A') (A') (A')
                 (A') (A") (A') (A") (A') (A') (A") (A') (A')
       Virtual   (A") (A') (A") (A') (A') (A') (A") (A') (A') (A')
                 (A') (A") (A') (A') (A') (A") (A') (A") (A') (A")
                 (A') (A') (A') (A') (A') (A") (A") (A') (A") (A')
                 (A") (A') (A") (A') (A') (A") (A') (A") (A') (A')
                 (A') (A") (A') (A') (A") (A") (A') (A') (A') (A')
                 (A') (A') (A') (A') (A') (A')
 The electronic state is 1-A'.
 Alpha  occ. eigenvalues --  -19.33301 -19.22364 -19.22029 -14.57287 -14.55169
 Alpha  occ. eigenvalues --   -1.29914  -1.24609  -1.09443  -0.74429  -0.65026
 Alpha  occ. eigenvalues --   -0.59063  -0.56474  -0.54089  -0.53081  -0.52526
 Alpha  occ. eigenvalues --   -0.45589  -0.34293  -0.33059  -0.26679
 Alpha virt. eigenvalues --   -0.15171  -0.06084  -0.06072   0.24850   0.27751
 Alpha virt. eigenvalues --    0.41423   0.55189   0.56469   0.58894   0.59964
 Alpha virt. eigenvalues --    0.67203   0.70450   0.70841   0.76363   0.80122
 Alpha virt. eigenvalues --    0.84140   0.86441   0.92064   0.93840   0.97385
 Alpha virt. eigenvalues --    0.97734   1.05718   1.08936   1.19077   1.34673
 Alpha virt. eigenvalues --    1.36311   1.39087   1.40986   1.46668   1.50316
 Alpha virt. eigenvalues --    1.53385   1.66613   1.76757   1.77556   1.78389
 Alpha virt. eigenvalues --    1.82585   1.82849   1.97301   2.01260   2.16793
 Alpha virt. eigenvalues --    2.34829   2.36010   2.39981   2.51562   2.53270
 Alpha virt. eigenvalues --    2.70872   2.72913   2.81595   2.83061   2.86359
 Alpha virt. eigenvalues --    2.94611   3.31040   3.56502   3.65950   3.78031
 Alpha virt. eigenvalues --    3.84196
     Molecular Orbital Coefficients
                           1         2         3         4         5
                        (A')--O   (A')--O   (A')--O   (A')--O   (A')--O
     EIGENVALUES --   -19.33301 -19.22364 -19.22029 -14.57287 -14.55169
   1 1   O  1S          0.99285   0.00006   0.00004   0.00002  -0.00003
   2        2S          0.02609   0.00021   0.00015   0.00011   0.00057
   3        2PX        -0.00125   0.00003   0.00002  -0.00001   0.00022
   4        2PY         0.00098   0.00005   0.00003   0.00002  -0.00018
   5        2PZ         0.00000   0.00000   0.00000   0.00000   0.00000
   6        3S          0.01292  -0.00121  -0.00070  -0.00036  -0.00289
   7        3PX        -0.00141   0.00016   0.00013   0.00006   0.00139
   8        3PY         0.00112  -0.00033  -0.00029  -0.00016  -0.00112
   9        3PZ         0.00000   0.00000   0.00000   0.00000   0.00000
  10        4XX        -0.00741   0.00016   0.00009   0.00005  -0.00046
  11        4YY        -0.00761   0.00011   0.00003  -0.00002  -0.00018
  12        4ZZ        -0.00795   0.00021   0.00015   0.00009   0.00052
  13        4XY        -0.00044   0.00000   0.00003   0.00000   0.00093
  14        4XZ         0.00000   0.00000   0.00000   0.00000   0.00000
  15        4YZ         0.00000   0.00000   0.00000   0.00000   0.00000
  16 2   N  1S          0.00013   0.00001   0.00002   0.00062   0.99296
  17        2S          0.00050   0.00003   0.00008  -0.00001   0.03450
  18        2PX        -0.00016   0.00002   0.00003   0.00001   0.00244
  19        2PY         0.00008   0.00002   0.00000  -0.00002  -0.00118
  20        2PZ         0.00000   0.00000   0.00000   0.00000   0.00000
  21        3S         -0.00397   0.00045   0.00004  -0.00033   0.00472
  22        3PX        -0.00194   0.00044   0.00000   0.00003   0.00037
  23        3PY         0.00158  -0.00039  -0.00019  -0.00021  -0.00052
  24        3PZ         0.00000   0.00000   0.00000   0.00000   0.00000
  25        4XX        -0.00057   0.00008   0.00005   0.00006  -0.00727
  26        4YY        -0.00018  -0.00006   0.00004   0.00014  -0.00762
  27        4ZZ         0.00029   0.00003   0.00007   0.00000  -0.00804
  28        4XY         0.00073   0.00000  -0.00007   0.00008  -0.00066
  29        4XZ         0.00000   0.00000   0.00000   0.00000   0.00000
  30        4YZ         0.00000   0.00000   0.00000   0.00000   0.00000
  31 3   O  1S          0.00001  -0.00185   0.99284  -0.00003  -0.00001
  32        2S          0.00006   0.00003   0.02596   0.00032  -0.00004
  33        2PX        -0.00001  -0.00001   0.00098   0.00008  -0.00001
  34        2PY        -0.00001  -0.00009  -0.00111  -0.00010  -0.00002
  35        2PZ         0.00000   0.00000   0.00000   0.00000   0.00000
  36        3S         -0.00021  -0.00034   0.01302  -0.00058   0.00051
  37        3PX        -0.00008   0.00023   0.00119  -0.00005   0.00014
  38        3PY         0.00008   0.00010  -0.00148   0.00028  -0.00012
  39        3PZ         0.00000   0.00000   0.00000   0.00000   0.00000
  40        4XX         0.00005  -0.00006  -0.00761   0.00000  -0.00003
  41        4YY         0.00002   0.00024  -0.00746  -0.00012  -0.00002
  42        4ZZ         0.00008   0.00003  -0.00792   0.00017   0.00000
  43        4XY         0.00002  -0.00006  -0.00041   0.00025  -0.00002
  44        4XZ         0.00000   0.00000   0.00000   0.00000   0.00000
  45        4YZ         0.00000   0.00000   0.00000   0.00000   0.00000
  46 4   O  1S          0.00005   0.99285   0.00188  -0.00002   0.00001
  47        2S          0.00026   0.02600   0.00017   0.00036   0.00006
  48        2PX        -0.00001  -0.00147  -0.00006  -0.00012   0.00001
  49        2PY        -0.00007   0.00004  -0.00006   0.00000   0.00000
  50        2PZ         0.00000   0.00000   0.00000   0.00000   0.00000
  51        3S         -0.00140   0.01267  -0.00069  -0.00094  -0.00036
  52        3PX         0.00048  -0.00174   0.00010   0.00039   0.00015
  53        3PY         0.00020  -0.00001   0.00027   0.00015   0.00010
  54        3PZ         0.00000   0.00000   0.00000   0.00000   0.00000
  55        4XX         0.00012  -0.00719   0.00013  -0.00028  -0.00001
  56        4YY         0.00016  -0.00788   0.00001   0.00019   0.00000
  57        4ZZ         0.00025  -0.00790   0.00001   0.00019   0.00003
  58        4XY        -0.00004   0.00001   0.00015  -0.00002  -0.00002
  59        4XZ         0.00000   0.00000   0.00000   0.00000   0.00000
  60        4YZ         0.00000   0.00000   0.00000   0.00000   0.00000
  61 5   N  1S          0.00001   0.00008   0.00008   0.99285  -0.00060
  62        2S          0.00006   0.00056   0.00055   0.03436  -0.00009
  63        2PX         0.00001   0.00011  -0.00008   0.00046  -0.00002
  64        2PY        -0.00001   0.00000   0.00009   0.00097   0.00001
  65        2PZ         0.00000   0.00000   0.00000   0.00000   0.00000
  66        3S          0.00071  -0.00352  -0.00344   0.00393  -0.00028
  67        3PX         0.00059  -0.00272   0.00209  -0.00004   0.00044
  68        3PY         0.00000  -0.00001  -0.00237  -0.00060  -0.00036
  69        3PZ         0.00000   0.00000   0.00000   0.00000   0.00000
  70        4XX         0.00007  -0.00099  -0.00033  -0.00762   0.00005
  71        4YY        -0.00004   0.00022  -0.00046  -0.00794   0.00017
  72        4ZZ         0.00003   0.00022   0.00021  -0.00815  -0.00001
  73        4XY        -0.00005   0.00011   0.00074  -0.00020   0.00010
  74        4XZ         0.00000   0.00000   0.00000   0.00000   0.00000
  75        4YZ         0.00000   0.00000   0.00000   0.00000   0.00000
                           6         7         8         9        10
                        (A')--O   (A')--O   (A')--O   (A')--O   (A')--O
     EIGENVALUES --    -1.29914  -1.24609  -1.09443  -0.74429  -0.65026
   1 1   O  1S         -0.17203   0.04228  -0.00519  -0.12769  -0.07401
   2        2S          0.39208  -0.09209   0.01161   0.28861   0.16683
   3        2PX        -0.15171   0.03814  -0.00873   0.13103   0.29178
   4        2PY         0.12165  -0.02304  -0.00034  -0.16743  -0.06790
   5        2PZ         0.00000   0.00000   0.00000   0.00000   0.00000
   6        3S          0.27947  -0.08452   0.01745   0.44020   0.27649
   7        3PX        -0.04718   0.01570  -0.00561   0.04004   0.12821
   8        3PY         0.03541  -0.01161   0.00038  -0.05413  -0.02396
   9        3PZ         0.00000   0.00000   0.00000   0.00000   0.00000
  10        4XX         0.01053  -0.00130   0.00003  -0.01345  -0.02308
  11        4YY         0.00339   0.00138  -0.00067  -0.01467   0.00261
  12        4ZZ        -0.00429   0.00377  -0.00010   0.00111   0.00440
  13        4XY        -0.01779   0.00444  -0.00101   0.01508   0.01058
  14        4XZ         0.00000   0.00000   0.00000   0.00000   0.00000
  15        4YZ         0.00000   0.00000   0.00000   0.00000   0.00000
  16 2   N  1S         -0.12758   0.02405  -0.00479   0.14224   0.06140
  17        2S          0.27725  -0.04929   0.01242  -0.32745  -0.15153
  18        2PX         0.17281  -0.03528   0.00068   0.01398   0.01925
  19        2PY        -0.11801   0.04499  -0.00537  -0.13835   0.19452
  20        2PZ         0.00000   0.00000   0.00000   0.00000   0.00000
  21        3S          0.11920  -0.02885  -0.00182  -0.40283  -0.15845
  22        3PX         0.01600  -0.00305  -0.00933  -0.02519   0.01551
  23        3PY         0.00197  -0.00808   0.00364  -0.04907   0.05862
  24        3PZ         0.00000   0.00000   0.00000   0.00000   0.00000
  25        4XX         0.01368  -0.00109  -0.00184   0.01068   0.01139
  26        4YY         0.00051   0.00342   0.00202   0.00393   0.00367
  27        4ZZ        -0.01523   0.00481   0.00033   0.00400   0.00304
  28        4XY        -0.02334   0.00754  -0.00274  -0.01791   0.01278
  29        4XZ         0.00000   0.00000   0.00000   0.00000   0.00000
  30        4YZ         0.00000   0.00000   0.00000   0.00000   0.00000
  31 3   O  1S         -0.01816  -0.10969  -0.14386  -0.04303   0.08129
  32        2S          0.04243   0.24418   0.32144   0.09663  -0.18153
  33        2PX         0.01561   0.09171   0.07271   0.02153   0.04692
  34        2PY        -0.01772  -0.09450  -0.10531   0.05115  -0.13986
  35        2PZ         0.00000   0.00000   0.00000   0.00000   0.00000
  36        3S          0.02409   0.19643   0.30229   0.13365  -0.26729
  37        3PX         0.00337   0.04096   0.02923   0.01575   0.01837
  38        3PY        -0.00423  -0.03474  -0.04875   0.01651  -0.05771
  39        3PZ         0.00000   0.00000   0.00000   0.00000   0.00000
  40        4XX         0.00141   0.00798  -0.00460   0.00326   0.00247
  41        4YY         0.00233   0.00541   0.00715  -0.00971   0.01575
  42        4ZZ         0.00045  -0.00522  -0.00642  -0.00114   0.00000
  43        4XY        -0.00245  -0.01738  -0.00998   0.00042  -0.00876
  44        4XZ         0.00000   0.00000   0.00000   0.00000   0.00000
  45        4YZ         0.00000   0.00000   0.00000   0.00000   0.00000
  46 4   O  1S         -0.02359  -0.11051   0.14256  -0.04226   0.08784
  47        2S          0.05724   0.24762  -0.31727   0.09212  -0.19517
  48        2PX        -0.03010  -0.13192   0.12477   0.03075  -0.14298
  49        2PY        -0.00252   0.01121   0.01175   0.04481  -0.06567
  50        2PZ         0.00000   0.00000   0.00000   0.00000   0.00000
  51        3S          0.02377   0.18592  -0.30470   0.13621  -0.31002
  52        3PX        -0.00392  -0.04825   0.05737   0.00464  -0.04775
  53        3PY         0.00098   0.00991   0.00976   0.01646  -0.03114
  54        3PZ         0.00000   0.00000   0.00000   0.00000   0.00000
  55        4XX         0.00559   0.02117  -0.01006  -0.00649   0.01770
  56        4YY         0.00065  -0.00707   0.00840  -0.00105   0.00229
  57        4ZZ         0.00150  -0.00501   0.00709  -0.00231   0.00006
  58        4XY        -0.00023  -0.00486  -0.00519  -0.00657   0.00628
  59        4XZ         0.00000   0.00000   0.00000   0.00000   0.00000
  60        4YZ         0.00000   0.00000   0.00000   0.00000   0.00000
  61 5   N  1S         -0.03564  -0.15436  -0.00164   0.05146  -0.10439
  62        2S          0.07975   0.34129   0.00369  -0.12027   0.25013
  63        2PX         0.01077   0.04749  -0.29574   0.07214  -0.06049
  64        2PY         0.00124   0.09897   0.14218   0.16237  -0.13234
  65        2PZ         0.00000   0.00000   0.00000   0.00000   0.00000
  66        3S          0.03825   0.14476   0.00465  -0.15217   0.32189
  67        3PX         0.00615  -0.00095  -0.00200   0.02521  -0.01479
  68        3PY         0.00077  -0.02343   0.00124   0.04947  -0.08245
  69        3PZ         0.00000   0.00000   0.00000   0.00000   0.00000
  70        4XX         0.00407   0.01428  -0.02023   0.00488  -0.01084
  71        4YY         0.00358  -0.00368   0.02005  -0.00347  -0.00485
  72        4ZZ        -0.00313  -0.01737  -0.00018  -0.00030  -0.00281
  73        4XY        -0.00168  -0.01208  -0.01886  -0.00608   0.00130
  74        4XZ         0.00000   0.00000   0.00000   0.00000   0.00000
  75        4YZ         0.00000   0.00000   0.00000   0.00000   0.00000
                          11        12        13        14        15
                        (A')--O   (A")--O   (A')--O   (A")--O   (A')--O
     EIGENVALUES --    -0.59063  -0.56474  -0.54089  -0.53081  -0.52526
   1 1   O  1S         -0.01979   0.00000   0.02227   0.00000   0.01446
   2        2S          0.03609   0.00000  -0.03933   0.00000  -0.02381
   3        2PX         0.25810   0.00000  -0.03026   0.00000  -0.01435
   4        2PY         0.09427   0.00000   0.35688   0.00000   0.31106
   5        2PZ         0.00000   0.41100   0.00000  -0.30939   0.00000
   6        3S          0.09672   0.00000  -0.10263   0.00000  -0.07104
   7        3PX         0.13013   0.00000  -0.01047   0.00000   0.00376
   8        3PY         0.05972   0.00000   0.19096   0.00000   0.17103
   9        3PZ         0.00000   0.23031   0.00000  -0.17710   0.00000
  10        4XX        -0.02106   0.00000  -0.00696   0.00000  -0.00805
  11        4YY         0.01128   0.00000   0.01895   0.00000   0.01637
  12        4ZZ        -0.00088   0.00000  -0.00123   0.00000  -0.00131
  13        4XY         0.00199   0.00000  -0.01174   0.00000  -0.00909
  14        4XZ         0.00000  -0.02467   0.00000   0.01835   0.00000
  15        4YZ         0.00000   0.02057   0.00000  -0.01321   0.00000
  16 2   N  1S         -0.00471   0.00000   0.05341   0.00000   0.04458
  17        2S         -0.00231   0.00000  -0.10689   0.00000  -0.08692
  18        2PX         0.03247   0.00000   0.32580   0.00000   0.27460
  19        2PY         0.23769   0.00000  -0.02467   0.00000  -0.01084
  20        2PZ         0.00000   0.33858   0.00000  -0.21604   0.00000
  21        3S          0.05133   0.00000  -0.24505   0.00000  -0.20965
  22        3PX         0.02857   0.00000   0.12075   0.00000   0.10225
  23        3PY         0.10317   0.00000   0.01588   0.00000   0.01430
  24        3PZ         0.00000   0.16772   0.00000  -0.10314   0.00000
  25        4XX         0.00953   0.00000   0.03326   0.00000   0.02735
  26        4YY        -0.00962   0.00000  -0.01444   0.00000  -0.00972
  27        4ZZ        -0.00106   0.00000  -0.00452   0.00000  -0.00323
  28        4XY         0.01637   0.00000  -0.00585   0.00000  -0.00846
  29        4XZ         0.00000   0.03056   0.00000  -0.01891   0.00000
  30        4YZ         0.00000  -0.01447   0.00000   0.01666   0.00000
  31 3   O  1S         -0.07820   0.00000  -0.05039   0.00000   0.06562
  32        2S          0.16678   0.00000   0.10372   0.00000  -0.13593
  33        2PX        -0.22934   0.00000  -0.05306   0.00000   0.18318
  34        2PY         0.08852   0.00000   0.20447   0.00000  -0.23917
  35        2PZ         0.00000   0.15171   0.00000   0.25604   0.00000
  36        3S          0.29807   0.00000   0.22426   0.00000  -0.25968
  37        3PX        -0.10595   0.00000  -0.01332   0.00000   0.09107
  38        3PY         0.03391   0.00000   0.09018   0.00000  -0.11773
  39        3PZ         0.00000   0.07634   0.00000   0.13823   0.00000
  40        4XX        -0.02091   0.00000  -0.00097   0.00000   0.00763
  41        4YY        -0.00487   0.00000  -0.01619   0.00000   0.01601
  42        4ZZ         0.00046   0.00000  -0.00011   0.00000  -0.00097
  43        4XY         0.01535   0.00000   0.00585   0.00000  -0.01287
  44        4XZ         0.00000   0.00997   0.00000   0.01632   0.00000
  45        4YZ         0.00000  -0.01190   0.00000  -0.01852   0.00000
  46 4   O  1S         -0.07128   0.00000   0.06293   0.00000  -0.05342
  47        2S          0.15015   0.00000  -0.12847   0.00000   0.11271
  48        2PX         0.21353   0.00000  -0.24043   0.00000   0.26155
  49        2PY        -0.14481   0.00000  -0.02682   0.00000   0.05502
  50        2PZ         0.00000   0.16102   0.00000   0.25562   0.00000
  51        3S          0.26954   0.00000  -0.27542   0.00000   0.20613
  52        3PX         0.09814   0.00000  -0.10214   0.00000   0.13293
  53        3PY        -0.07618   0.00000  -0.01186   0.00000   0.03047
  54        3PZ         0.00000   0.08549   0.00000   0.13663   0.00000
  55        4XX        -0.02499   0.00000   0.01948   0.00000  -0.01962
  56        4YY         0.00035   0.00000   0.00304   0.00000   0.00169
  57        4ZZ        -0.00016   0.00000   0.00067   0.00000   0.00208
  58        4XY         0.01321   0.00000   0.00136   0.00000  -0.00710
  59        4XZ         0.00000  -0.01614   0.00000  -0.02450   0.00000
  60        4YZ         0.00000  -0.00085   0.00000   0.00114   0.00000
  61 5   N  1S          0.05741   0.00000   0.00148   0.00000  -0.00019
  62        2S         -0.16112   0.00000   0.00051   0.00000   0.00358
  63        2PX        -0.11483   0.00000   0.23402   0.00000  -0.24332
  64        2PY        -0.24216   0.00000  -0.04254   0.00000   0.16640
  65        2PZ         0.00000   0.26830   0.00000   0.39469   0.00000
  66        3S         -0.12835   0.00000  -0.01599   0.00000  -0.00374
  67        3PX        -0.03530   0.00000   0.11226   0.00000  -0.04671
  68        3PY        -0.10018   0.00000  -0.02241   0.00000   0.04615
  69        3PZ         0.00000   0.14059   0.00000   0.20103   0.00000
  70        4XX         0.01086   0.00000  -0.00190   0.00000  -0.00680
  71        4YY         0.00372   0.00000   0.00348   0.00000   0.00777
  72        4ZZ         0.00136   0.00000  -0.00038   0.00000  -0.00033
  73        4XY        -0.00957   0.00000  -0.00028   0.00000  -0.00448
  74        4XZ         0.00000   0.00374   0.00000   0.00756   0.00000
  75        4YZ         0.00000   0.00430   0.00000   0.01650   0.00000
                          16        17        18        19        20
                        (A')--O   (A")--O   (A')--O   (A')--O   (A")--V
     EIGENVALUES --    -0.45589  -0.34293  -0.33059  -0.26679  -0.15171
   1 1   O  1S         -0.00708   0.00000  -0.00801  -0.00174   0.00000
   2        2S          0.01046   0.00000   0.02727   0.01900   0.00000
   3        2PX         0.33674   0.00000   0.00407  -0.21981   0.00000
   4        2PY         0.13121   0.00000   0.02750  -0.26524   0.00000
   5        2PZ         0.00000  -0.00495   0.00000   0.00000  -0.46683
   6        3S          0.02621   0.00000   0.04544  -0.05498   0.00000
   7        3PX         0.19232   0.00000  -0.02656  -0.15627   0.00000
   8        3PY         0.07983   0.00000   0.00915  -0.23092   0.00000
   9        3PZ         0.00000   0.00704   0.00000   0.00000  -0.41179
  10        4XX        -0.01579   0.00000   0.00001   0.00143   0.00000
  11        4YY         0.01297   0.00000   0.00261   0.00180   0.00000
  12        4ZZ         0.00254   0.00000   0.00301   0.00485   0.00000
  13        4XY        -0.00375   0.00000  -0.00601   0.00144   0.00000
  14        4XZ         0.00000   0.00118   0.00000   0.00000  -0.00571
  15        4YZ         0.00000   0.00129   0.00000   0.00000   0.00447
  16 2   N  1S         -0.07865   0.00000   0.00771   0.02703   0.00000
  17        2S          0.17322   0.00000  -0.01573  -0.06355   0.00000
  18        2PX        -0.13545   0.00000   0.06467   0.24319   0.00000
  19        2PY         0.25275   0.00000   0.04451   0.20805   0.00000
  20        2PZ         0.00000  -0.01425   0.00000   0.00000   0.53412
  21        3S          0.36150   0.00000  -0.06281  -0.09072   0.00000
  22        3PX        -0.03378   0.00000   0.00837   0.21040   0.00000
  23        3PY         0.11162   0.00000   0.06434   0.14107   0.00000
  24        3PZ         0.00000  -0.01268   0.00000   0.00000   0.46455
  25        4XX         0.00002   0.00000   0.00229  -0.00123   0.00000
  26        4YY        -0.02941   0.00000  -0.00015   0.02590   0.00000
  27        4ZZ         0.00494   0.00000  -0.00049  -0.00516   0.00000
  28        4XY         0.01530   0.00000  -0.00113   0.00540   0.00000
  29        4XZ         0.00000   0.00048   0.00000   0.00000  -0.00195
  30        4YZ         0.00000   0.00038   0.00000   0.00000   0.01325
  31 3   O  1S          0.00459   0.00000   0.00177   0.00652   0.00000
  32        2S         -0.00626   0.00000  -0.00874  -0.02263   0.00000
  33        2PX         0.22545   0.00000  -0.41299   0.16389   0.00000
  34        2PY         0.16874   0.00000  -0.20110   0.32592   0.00000
  35        2PZ         0.00000  -0.47377   0.00000   0.00000  -0.12969
  36        3S         -0.03652   0.00000  -0.03228  -0.05011   0.00000
  37        3PX         0.12303   0.00000  -0.28476   0.11723   0.00000
  38        3PY         0.10431   0.00000  -0.12550   0.25368   0.00000
  39        3PZ         0.00000  -0.33128   0.00000   0.00000  -0.10726
  40        4XX         0.01757   0.00000  -0.01845   0.00186   0.00000
  41        4YY        -0.01498   0.00000   0.01390  -0.00820   0.00000
  42        4ZZ         0.00001   0.00000  -0.00026   0.00101   0.00000
  43        4XY        -0.00165   0.00000   0.00823   0.00482   0.00000
  44        4XZ         0.00000  -0.01357   0.00000   0.00000  -0.00283
  45        4YZ         0.00000   0.01763   0.00000   0.00000  -0.00037
  46 4   O  1S          0.00670   0.00000  -0.00206   0.00523   0.00000
  47        2S         -0.01596   0.00000   0.00968  -0.01585   0.00000
  48        2PX        -0.01321   0.00000  -0.07933   0.17429   0.00000
  49        2PY         0.25798   0.00000   0.50430   0.23546   0.00000
  50        2PZ         0.00000   0.47746   0.00000   0.00000  -0.10606
  51        3S         -0.02272   0.00000   0.02791  -0.05299   0.00000
  52        3PX        -0.00370   0.00000  -0.06218   0.13939   0.00000
  53        3PY         0.14199   0.00000   0.33978   0.19330   0.00000
  54        3PZ         0.00000   0.33503   0.00000   0.00000  -0.09906
  55        4XX        -0.00195   0.00000   0.00465  -0.00606   0.00000
  56        4YY         0.00259   0.00000  -0.00147   0.00052   0.00000
  57        4ZZ        -0.00163   0.00000   0.00122   0.00321   0.00000
  58        4XY        -0.01711   0.00000  -0.02130  -0.00168   0.00000
  59        4XZ         0.00000  -0.02196   0.00000   0.00000   0.00121
  60        4YZ         0.00000  -0.00124   0.00000   0.00000  -0.00055
  61 5   N  1S          0.04052   0.00000  -0.00019  -0.03743   0.00000
  62        2S         -0.09625   0.00000   0.00003   0.06433   0.00000
  63        2PX         0.11992   0.00000   0.02049  -0.11157   0.00000
  64        2PY         0.25202   0.00000  -0.02368  -0.23767   0.00000
  65        2PZ         0.00000  -0.00638   0.00000   0.00000   0.09342
  66        3S         -0.14147   0.00000   0.00722   0.32496   0.00000
  67        3PX         0.06276   0.00000  -0.06302  -0.04667   0.00000
  68        3PY         0.15774   0.00000   0.03345  -0.09709   0.00000
  69        3PZ         0.00000  -0.00331   0.00000   0.00000   0.09811
  70        4XX        -0.01218   0.00000   0.02658  -0.03157   0.00000
  71        4YY         0.02485   0.00000  -0.02556   0.02160   0.00000
  72        4ZZ        -0.00250   0.00000   0.00050   0.00290   0.00000
  73        4XY         0.02531   0.00000   0.02990   0.02765   0.00000
  74        4XZ         0.00000   0.04628   0.00000   0.00000  -0.00570
  75        4YZ         0.00000  -0.02204   0.00000   0.00000  -0.01413
                          21        22        23        24        25
                        (A')--V   (A")--V   (A')--V   (A')--V   (A')--V
     EIGENVALUES --    -0.06084  -0.06072   0.24850   0.27751   0.41423
   1 1   O  1S         -0.00146   0.00000   0.00732  -0.10131  -0.04841
   2        2S          0.00641   0.00000  -0.02511   0.25545   0.08128
   3        2PX         0.17093   0.00000  -0.00021  -0.23704  -0.15624
   4        2PY         0.25302   0.00000  -0.02582   0.19630   0.00575
   5        2PZ         0.00000   0.11429   0.00000   0.00000   0.00000
   6        3S         -0.00237   0.00000  -0.14956   1.87040   1.17542
   7        3PX         0.16713   0.00000   0.07941  -0.88591  -0.58994
   8        3PY         0.24132   0.00000  -0.06857   0.70598   0.45094
   9        3PZ         0.00000   0.10821   0.00000   0.00000   0.00000
  10        4XX         0.01244   0.00000  -0.00565   0.02326  -0.01106
  11        4YY        -0.01278   0.00000  -0.00412   0.00507   0.01404
  12        4ZZ         0.00037   0.00000  -0.00158  -0.01096  -0.01319
  13        4XY         0.00711   0.00000   0.00207  -0.02944   0.00244
  14        4XZ         0.00000   0.00632   0.00000   0.00000   0.00000
  15        4YZ         0.00000  -0.00271   0.00000   0.00000   0.00000
  16 2   N  1S          0.03685   0.00000  -0.01248   0.07405   0.03926
  17        2S         -0.10732   0.00000   0.01172  -0.11463  -0.09399
  18        2PX        -0.26785   0.00000   0.03286  -0.23161  -0.20265
  19        2PY        -0.47670   0.00000   0.01417   0.15009   0.16350
  20        2PZ         0.00000  -0.20053   0.00000   0.00000   0.00000
  21        3S         -0.18583   0.00000   0.28851  -1.84405  -1.13488
  22        3PX        -0.24868   0.00000   0.14391  -1.26750  -0.89289
  23        3PY        -0.42329   0.00000   0.00272   1.02630   0.51837
  24        3PZ         0.00000  -0.15494   0.00000   0.00000   0.00000
  25        4XX        -0.00056   0.00000  -0.00792   0.00512   0.01111
  26        4YY         0.01265   0.00000  -0.01649   0.01777  -0.00766
  27        4ZZ        -0.00576   0.00000   0.00095  -0.00238  -0.00755
  28        4XY         0.00338   0.00000  -0.00705  -0.01757   0.02259
  29        4XZ         0.00000   0.00436   0.00000   0.00000   0.00000
  30        4YZ         0.00000   0.00905   0.00000   0.00000   0.00000
  31 3   O  1S          0.01550   0.00000   0.07458   0.03374  -0.07864
  32        2S         -0.05082   0.00000  -0.18637  -0.13910   0.14799
  33        2PX         0.02294   0.00000  -0.34238   0.01756   0.07938
  34        2PY         0.21396   0.00000   0.15183   0.17453  -0.21765
  35        2PZ         0.00000  -0.37406   0.00000   0.00000   0.00000
  36        3S         -0.09618   0.00000  -0.95099  -0.41010   1.59164
  37        3PX         0.02247   0.00000  -0.68418  -0.14794   0.46313
  38        3PY         0.20635   0.00000   0.37979   0.27376  -0.88780
  39        3PZ         0.00000  -0.35372   0.00000   0.00000   0.00000
  40        4XX        -0.00965   0.00000   0.01073  -0.02271   0.00673
  41        4YY         0.00382   0.00000  -0.02225  -0.01224  -0.02244
  42        4ZZ        -0.00043   0.00000   0.00872  -0.02182  -0.00526
  43        4XY         0.00134   0.00000  -0.00235   0.01645  -0.00461
  44        4XZ         0.00000   0.00535   0.00000   0.00000   0.00000
  45        4YZ         0.00000  -0.00847   0.00000   0.00000   0.00000
  46 4   O  1S          0.01800   0.00000   0.07652  -0.02116   0.07896
  47        2S         -0.06015   0.00000  -0.20253   0.05850  -0.18295
  48        2PX         0.14371   0.00000   0.34437  -0.05424   0.23858
  49        2PY         0.19226   0.00000  -0.15580  -0.09919   0.09649
  50        2PZ         0.00000  -0.37392   0.00000   0.00000   0.00000
  51        3S         -0.13616   0.00000  -0.92723   0.36853  -1.50453
  52        3PX         0.16101   0.00000   0.72836  -0.22550   0.95654
  53        3PY         0.16522   0.00000  -0.28607  -0.09552   0.22956
  54        3PZ         0.00000  -0.34974   0.00000   0.00000   0.00000
  55        4XX        -0.00752   0.00000  -0.00934   0.01652   0.00244
  56        4YY        -0.00091   0.00000  -0.00708  -0.00498   0.00063
  57        4ZZ        -0.00249   0.00000   0.00481   0.00341  -0.00816
  58        4XY         0.00699   0.00000  -0.01823  -0.00563   0.01563
  59        4XZ         0.00000  -0.01021   0.00000   0.00000   0.00000
  60        4YZ         0.00000  -0.00142   0.00000   0.00000   0.00000
  61 5   N  1S         -0.08385   0.00000  -0.11644  -0.01410  -0.00557
  62        2S          0.17588   0.00000   0.20132   0.02403  -0.00735
  63        2PX        -0.16328   0.00000   0.21031  -0.10680   0.55774
  64        2PY        -0.33890   0.00000   0.42169   0.06059  -0.25158
  65        2PZ         0.00000   0.55348   0.00000   0.00000   0.00000
  66        3S          0.69161   0.00000   2.04291   0.13760   0.04288
  67        3PX        -0.06938   0.00000   0.39666  -0.55715   2.01213
  68        3PY        -0.23428   0.00000   0.86491   0.31199  -1.06648
  69        3PZ         0.00000   0.46154   0.00000   0.00000   0.00000
  70        4XX        -0.02627   0.00000  -0.06264   0.00292  -0.02607
  71        4YY        -0.02555   0.00000  -0.02264  -0.01132   0.02024
  72        4ZZ         0.00867   0.00000   0.02119   0.00079  -0.00620
  73        4XY         0.00549   0.00000   0.02554   0.01417  -0.01545
  74        4XZ         0.00000  -0.00414   0.00000   0.00000   0.00000
  75        4YZ         0.00000  -0.01080   0.00000   0.00000   0.00000
                          26        27        28        29        30
                        (A")--V   (A')--V   (A')--V   (A')--V   (A')--V
     EIGENVALUES --     0.55189   0.56469   0.58894   0.59964   0.67203
   1 1   O  1S          0.00000  -0.02700   0.01210  -0.02129   0.00881
   2        2S          0.00000  -0.32215  -0.07798   0.15728   0.04151
   3        2PX         0.00000  -0.25835  -0.03534  -0.20635   0.05257
   4        2PY         0.00000   0.08808  -0.13916  -0.03672  -0.45493
   5        2PZ        -0.14927   0.00000   0.00000   0.00000   0.00000
   6        3S          0.00000   0.47293   0.07468  -0.36165   1.17948
   7        3PX         0.00000   0.03020   0.12152  -0.01605  -0.38807
   8        3PY         0.00000   0.17960  -0.06005   0.01087   0.70373
   9        3PZ         0.02052   0.00000   0.00000   0.00000   0.00000
  10        4XX         0.00000  -0.21273   0.04051   0.01089   0.12269
  11        4YY         0.00000  -0.09159  -0.04497  -0.02483   0.11729
  12        4ZZ         0.00000  -0.08181  -0.03221   0.05967  -0.05230
  13        4XY         0.00000   0.10732  -0.03431   0.08745  -0.11704
  14        4XZ         0.06558   0.00000   0.00000   0.00000   0.00000
  15        4YZ        -0.03054   0.00000   0.00000   0.00000   0.00000
  16 2   N  1S          0.00000   0.03663  -0.02493   0.00231  -0.00499
  17        2S          0.00000  -0.74359   0.05865   0.31887   0.26646
  18        2PX         0.00000  -0.01518  -0.01321  -0.75732   0.38430
  19        2PY         0.00000   0.34684  -0.41614   0.05199  -0.24067
  20        2PZ        -0.70132   0.00000   0.00000   0.00000   0.00000
  21        3S          0.00000   0.70874   0.33055  -0.28932  -1.47529
  22        3PX         0.00000  -0.18650   0.25918   0.87961  -1.42967
  23        3PY         0.00000  -0.54341   0.66814   0.18766   0.67980
  24        3PZ         0.74104   0.00000   0.00000   0.00000   0.00000
  25        4XX         0.00000  -0.09458  -0.04349   0.10578  -0.03345
  26        4YY         0.00000  -0.12187  -0.01117   0.12203   0.01398
  27        4ZZ         0.00000  -0.13236   0.01077   0.06015   0.04919
  28        4XY         0.00000  -0.04256  -0.00294  -0.05854   0.12594
  29        4XZ        -0.01559   0.00000   0.00000   0.00000   0.00000
  30        4YZ         0.04768   0.00000   0.00000   0.00000   0.00000
  31 3   O  1S          0.00000   0.00613  -0.00467   0.01462  -0.00862
  32        2S          0.00000  -0.12071  -0.27416   0.10576   0.07990
  33        2PX         0.00000  -0.02947   0.13273  -0.16571  -0.11048
  34        2PY         0.00000   0.00740  -0.20976  -0.02784   0.19530
  35        2PZ        -0.09721   0.00000   0.00000   0.00000   0.00000
  36        3S          0.00000   0.19493  -0.38487  -0.17975   1.12827
  37        3PX         0.00000  -0.03270  -0.39395  -0.04916   0.27206
  38        3PY         0.00000   0.02239   0.19029   0.07243  -0.60225
  39        3PZ        -0.04337   0.00000   0.00000   0.00000   0.00000
  40        4XX         0.00000  -0.03312  -0.15101   0.04208   0.04987
  41        4YY         0.00000  -0.02418  -0.16114   0.07281   0.10574
  42        4ZZ         0.00000  -0.03276  -0.04300   0.03273  -0.01880
  43        4XY         0.00000  -0.00991   0.13466  -0.04237  -0.08464
  44        4XZ        -0.03880   0.00000   0.00000   0.00000   0.00000
  45        4YZ         0.02510   0.00000   0.00000   0.00000   0.00000
  46 4   O  1S          0.00000  -0.01398   0.00258  -0.00836   0.00867
  47        2S          0.00000  -0.19851  -0.28545  -0.09508  -0.14800
  48        2PX         0.00000  -0.16865  -0.13282  -0.10709  -0.22201
  49        2PY         0.00000   0.11924  -0.06535   0.06959   0.07252
  50        2PZ        -0.10951   0.00000   0.00000   0.00000   0.00000
  51        3S          0.00000   0.03725   0.05601  -0.05331  -0.95489
  52        3PX         0.00000   0.06194   0.25039   0.05062   0.62892
  53        3PY         0.00000  -0.05638  -0.21629  -0.08759   0.13806
  54        3PZ        -0.03538   0.00000   0.00000   0.00000   0.00000
  55        4XX         0.00000  -0.17734  -0.19141  -0.12042  -0.17197
  56        4YY         0.00000  -0.03022  -0.05569  -0.00174  -0.01215
  57        4ZZ         0.00000  -0.04989  -0.05873  -0.01857  -0.00962
  58        4XY         0.00000  -0.00768   0.03183   0.01135  -0.01644
  59        4XZ         0.04265   0.00000   0.00000   0.00000   0.00000
  60        4YZ        -0.01682   0.00000   0.00000   0.00000   0.00000
  61 5   N  1S          0.00000   0.00226   0.02714   0.00748  -0.00415
  62        2S          0.00000  -0.47612  -0.73377   0.07145  -0.00997
  63        2PX         0.00000  -0.27580   0.05500  -0.37730  -0.38660
  64        2PY         0.00000   0.18532  -0.34052   0.05284   0.22960
  65        2PZ        -0.55938   0.00000   0.00000   0.00000   0.00000
  66        3S          0.00000   0.86353   1.45194  -0.08712   0.05818
  67        3PX         0.00000   0.37508   0.08534   0.51113   1.94793
  68        3PY         0.00000  -0.24788   1.27911   0.19602  -1.12807
  69        3PZ         0.63520   0.00000   0.00000   0.00000   0.00000
  70        4XX         0.00000  -0.04406  -0.03432   0.07077   0.06186
  71        4YY         0.00000  -0.11215  -0.09586  -0.00803  -0.04509
  72        4ZZ         0.00000  -0.08547  -0.10990   0.01767  -0.01084
  73        4XY         0.00000   0.01543  -0.08866   0.01580   0.07202
  74        4XZ        -0.02361   0.00000   0.00000   0.00000   0.00000
  75        4YZ        -0.04918   0.00000   0.00000   0.00000   0.00000
                          31        32        33        34        35
                        (A")--V   (A')--V   (A')--V   (A')--V   (A")--V
     EIGENVALUES --     0.70450   0.70841   0.76363   0.80122   0.84140
   1 1   O  1S          0.00000  -0.00278   0.00107  -0.00681   0.00000
   2        2S          0.00000   0.43429  -0.19966   0.02614   0.00000
   3        2PX         0.00000   0.40931  -0.32569  -0.04856   0.00000
   4        2PY         0.00000   0.03133   0.44706  -0.18160   0.00000
   5        2PZ         0.18760   0.00000   0.00000   0.00000  -0.78376
   6        3S          0.00000  -0.55018   0.22633   0.10693   0.00000
   7        3PX         0.00000  -0.55863   0.66725   0.03576   0.00000
   8        3PY         0.00000   0.17670  -0.71523   0.38286   0.00000
   9        3PZ        -0.02677   0.00000   0.00000   0.00000   1.13813
  10        4XX         0.00000   0.12129  -0.12822   0.01389   0.00000
  11        4YY         0.00000   0.18234  -0.09074   0.00865   0.00000
  12        4ZZ         0.00000   0.13295  -0.09631  -0.00865   0.00000
  13        4XY         0.00000  -0.03992   0.00586   0.00245   0.00000
  14        4XZ        -0.02313   0.00000   0.00000   0.00000   0.01773
  15        4YZ         0.06449   0.00000   0.00000   0.00000   0.00133
  16 2   N  1S          0.00000  -0.01005   0.02643   0.00275   0.00000
  17        2S          0.00000   0.09159   0.30396   0.11246   0.00000
  18        2PX         0.00000   0.08834   0.19514   0.01459   0.00000
  19        2PY         0.00000   0.41495   0.11805   0.14214   0.00000
  20        2PZ         0.53874   0.00000   0.00000   0.00000   0.20364
  21        3S          0.00000  -0.39567   0.12083  -0.41400   0.00000
  22        3PX         0.00000  -0.27920  -0.18138  -0.16743   0.00000
  23        3PY         0.00000  -0.46282  -0.04424  -0.30235   0.00000
  24        3PZ        -0.85300   0.00000   0.00000   0.00000  -0.61708
  25        4XX         0.00000   0.01161   0.16387   0.00539   0.00000
  26        4YY         0.00000  -0.01703   0.09255   0.05131   0.00000
  27        4ZZ         0.00000   0.01998  -0.02197   0.01575   0.00000
  28        4XY         0.00000   0.09263  -0.11146   0.02753   0.00000
  29        4XZ         0.06524   0.00000   0.00000   0.00000  -0.03076
  30        4YZ         0.03847   0.00000   0.00000   0.00000   0.03085
  31 3   O  1S          0.00000   0.00461  -0.00058   0.01812   0.00000
  32        2S          0.00000  -0.06646   0.15732  -0.26394   0.00000
  33        2PX         0.00000  -0.15266  -0.11152   0.46887   0.00000
  34        2PY         0.00000  -0.25580  -0.00224  -0.35201   0.00000
  35        2PZ        -0.24671   0.00000   0.00000   0.00000   0.19151
  36        3S          0.00000  -0.06540  -0.10511  -0.30614   0.00000
  37        3PX         0.00000  -0.05979   0.05478  -0.90319   0.00000
  38        3PY         0.00000   0.33211  -0.04819   0.96470   0.00000
  39        3PZ        -0.00258   0.00000   0.00000   0.00000  -0.22483
  40        4XX         0.00000  -0.05440   0.02552  -0.14711   0.00000
  41        4YY         0.00000  -0.04654   0.06457  -0.14447   0.00000
  42        4ZZ         0.00000   0.00312   0.03851  -0.08182   0.00000
  43        4XY         0.00000   0.03661   0.00049   0.04911   0.00000
  44        4XZ        -0.01841   0.00000   0.00000   0.00000   0.02170
  45        4YZ         0.04007   0.00000   0.00000   0.00000   0.01133
  46 4   O  1S          0.00000   0.00871   0.01049   0.01162   0.00000
  47        2S          0.00000   0.06131  -0.20175  -0.04456   0.00000
  48        2PX         0.00000  -0.11795  -0.34985  -0.27645   0.00000
  49        2PY         0.00000  -0.38493  -0.13802   0.27635   0.00000
  50        2PZ        -0.24164   0.00000   0.00000   0.00000  -0.39811
  51        3S          0.00000  -0.85229  -0.30090  -0.09748   0.00000
  52        3PX         0.00000   0.49367   0.84149   0.69711   0.00000
  53        3PY         0.00000   0.36224   0.08884  -0.28440   0.00000
  54        3PZ        -0.00315   0.00000   0.00000   0.00000   0.46212
  55        4XX         0.00000  -0.07900  -0.15149  -0.05686   0.00000
  56        4YY         0.00000   0.01554  -0.07713  -0.02703   0.00000
  57        4ZZ         0.00000   0.06749  -0.05227  -0.03730   0.00000
  58        4XY         0.00000   0.00902   0.00335   0.01380   0.00000
  59        4XZ         0.04407   0.00000   0.00000   0.00000   0.00431
  60        4YZ         0.01391   0.00000   0.00000   0.00000  -0.01403
  61 5   N  1S          0.00000  -0.00837   0.00439   0.03284   0.00000
  62        2S          0.00000  -0.16963   0.24072   0.30313   0.00000
  63        2PX         0.00000  -0.23471  -0.09658   0.09296   0.00000
  64        2PY         0.00000  -0.22520  -0.20241   0.11508   0.00000
  65        2PZ        -0.63670   0.00000   0.00000   0.00000   0.01441
  66        3S          0.00000   1.31215   0.31451   0.99813   0.00000
  67        3PX         0.00000   0.64174   0.71855  -0.37315   0.00000
  68        3PY         0.00000   0.08385   0.10149   0.28325   0.00000
  69        3PZ         1.01964   0.00000   0.00000   0.00000  -0.02430
  70        4XX         0.00000   0.08143   0.21233   0.24134   0.00000
  71        4YY         0.00000  -0.02199  -0.00922   0.17579   0.00000
  72        4ZZ         0.00000  -0.04866   0.00093  -0.04380   0.00000
  73        4XY         0.00000  -0.07465   0.00638  -0.14070   0.00000
  74        4XZ         0.00031   0.00000   0.00000   0.00000  -0.01386
  75        4YZ        -0.00013   0.00000   0.00000   0.00000   0.02769
                          36        37        38        39        40
                        (A')--V   (A")--V   (A')--V   (A")--V   (A')--V
     EIGENVALUES --     0.86441   0.92064   0.93840   0.97385   0.97734
   1 1   O  1S          0.00057   0.00000  -0.00982   0.00000   0.00075
   2        2S          0.03107   0.00000  -0.23740   0.00000   0.14424
   3        2PX         0.36036   0.00000   0.14812   0.00000   0.05643
   4        2PY         0.09976   0.00000   0.33059   0.00000   0.14813
   5        2PZ         0.00000  -0.37080   0.00000   0.16572   0.00000
   6        3S         -0.27688   0.00000   0.97333   0.00000  -0.02327
   7        3PX        -0.54065   0.00000  -0.57897   0.00000   0.01837
   8        3PY        -0.16484   0.00000  -0.51965   0.00000  -0.03942
   9        3PZ         0.00000   0.55515   0.00000  -0.34095   0.00000
  10        4XX         0.01856   0.00000  -0.10965   0.00000   0.04990
  11        4YY        -0.01455   0.00000  -0.01123   0.00000   0.12376
  12        4ZZ         0.06848   0.00000  -0.08118   0.00000  -0.08120
  13        4XY         0.01778   0.00000  -0.03707   0.00000   0.02560
  14        4XZ         0.00000   0.00009   0.00000  -0.03176   0.00000
  15        4YZ         0.00000  -0.03375   0.00000  -0.02667   0.00000
  16 2   N  1S         -0.01801   0.00000  -0.00326   0.00000   0.03090
  17        2S         -0.21429   0.00000  -0.08554   0.00000   0.73085
  18        2PX        -0.19755   0.00000  -0.07985   0.00000   0.04995
  19        2PY        -0.13047   0.00000  -0.27709   0.00000   0.37502
  20        2PZ         0.00000   0.07845   0.00000  -0.14135   0.00000
  21        3S          0.27719   0.00000  -0.18923   0.00000  -1.42300
  22        3PX         0.54851   0.00000  -0.19817   0.00000  -0.38748
  23        3PY         0.16391   0.00000   1.04110   0.00000  -0.78963
  24        3PZ         0.00000  -0.25359   0.00000   0.44249   0.00000
  25        4XX        -0.12148   0.00000   0.06561   0.00000   0.20066
  26        4YY        -0.06558   0.00000  -0.13947   0.00000   0.21370
  27        4ZZ         0.04004   0.00000  -0.00879   0.00000  -0.01569
  28        4XY        -0.00498   0.00000   0.02983   0.00000   0.03881
  29        4XZ         0.00000  -0.03761   0.00000  -0.05785   0.00000
  30        4YZ         0.00000  -0.00424   0.00000  -0.10398   0.00000
  31 3   O  1S          0.00685   0.00000  -0.01070   0.00000   0.00566
  32        2S          0.22178   0.00000  -0.12270   0.00000   0.03829
  33        2PX         0.13248   0.00000   0.44362   0.00000   0.32495
  34        2PY         0.41612   0.00000   0.02387   0.00000   0.31550
  35        2PZ         0.00000  -0.71085   0.00000  -0.49903   0.00000
  36        3S         -0.55579   0.00000   1.16270   0.00000  -0.42258
  37        3PX        -0.11247   0.00000  -0.63054   0.00000  -0.50880
  38        3PY        -0.36806   0.00000  -0.39361   0.00000  -0.37140
  39        3PZ         0.00000   0.91338   0.00000   0.88806   0.00000
  40        4XX         0.08069   0.00000   0.01416   0.00000   0.00140
  41        4YY         0.07756   0.00000  -0.06730   0.00000  -0.04794
  42        4ZZ         0.08109   0.00000  -0.11449   0.00000   0.11898
  43        4XY         0.00698   0.00000  -0.05952   0.00000  -0.00475
  44        4XZ         0.00000  -0.02236   0.00000   0.00268   0.00000
  45        4YZ         0.00000   0.02026   0.00000   0.03917   0.00000
  46 4   O  1S          0.00361   0.00000   0.01219   0.00000   0.00886
  47        2S         -0.25376   0.00000   0.09230   0.00000   0.10517
  48        2PX        -0.50448   0.00000   0.15985   0.00000   0.04368
  49        2PY        -0.09147   0.00000  -0.24222   0.00000   0.31949
  50        2PZ         0.00000   0.45564   0.00000  -0.65299   0.00000
  51        3S          0.33718   0.00000  -1.17882   0.00000  -0.78523
  52        3PX         0.80963   0.00000   0.11342   0.00000   0.14088
  53        3PY         0.08087   0.00000   0.50183   0.00000  -0.43579
  54        3PZ         0.00000  -0.54338   0.00000   1.09053   0.00000
  55        4XX        -0.10027   0.00000  -0.02128   0.00000  -0.00513
  56        4YY        -0.12410   0.00000   0.04075   0.00000  -0.01666
  57        4ZZ        -0.08187   0.00000   0.09421   0.00000   0.14449
  58        4XY        -0.00340   0.00000   0.06807   0.00000  -0.02151
  59        4XZ         0.00000  -0.02397   0.00000   0.04070   0.00000
  60        4YZ         0.00000   0.01854   0.00000   0.02924   0.00000
  61 5   N  1S          0.01752   0.00000   0.01283   0.00000  -0.04412
  62        2S         -0.07079   0.00000   0.07913   0.00000  -0.63534
  63        2PX         0.19633   0.00000  -0.26268   0.00000  -0.02648
  64        2PY         0.17529   0.00000   0.17324   0.00000  -0.04094
  65        2PZ         0.00000   0.04098   0.00000   0.30822   0.00000
  66        3S          0.36511   0.00000  -0.24005   0.00000   2.03699
  67        3PX        -0.18619   0.00000   1.80729   0.00000   0.23968
  68        3PY         0.03368   0.00000  -0.53213   0.00000  -0.03380
  69        3PZ         0.00000  -0.14218   0.00000  -1.08357   0.00000
  70        4XX         0.10922   0.00000  -0.05603   0.00000  -0.19731
  71        4YY        -0.09664   0.00000   0.07864   0.00000  -0.11686
  72        4ZZ        -0.01211   0.00000   0.01457   0.00000   0.00700
  73        4XY         0.03433   0.00000  -0.11238   0.00000   0.04634
  74        4XZ         0.00000   0.08037   0.00000  -0.00278   0.00000
  75        4YZ         0.00000  -0.01847   0.00000   0.03157   0.00000
                          41        42        43        44        45
                        (A')--V   (A')--V   (A')--V   (A')--V   (A")--V
     EIGENVALUES --     1.05718   1.08936   1.19077   1.34673   1.36311
   1 1   O  1S          0.01087  -0.01304   0.05011  -0.03141   0.00000
   2        2S          0.14690  -0.19438   0.81942  -0.71193   0.00000
   3        2PX        -0.32075   0.24073  -0.19875  -0.00736   0.00000
   4        2PY        -0.32332   0.05231   0.00995  -0.20688   0.00000
   5        2PZ         0.00000   0.00000   0.00000   0.00000  -0.01741
   6        3S         -1.15282   0.59397  -3.08046   2.50688   0.00000
   7        3PX         0.85147  -0.65686   1.03550  -0.72549   0.00000
   8        3PY         0.34988  -0.13010  -0.68369   0.67228   0.00000
   9        3PZ         0.00000   0.00000   0.00000   0.00000  -0.02491
  10        4XX         0.04634  -0.11142   0.16242  -0.36737   0.00000
  11        4YY        -0.09941  -0.06126   0.12053  -0.06173   0.00000
  12        4ZZ         0.15707   0.02948   0.36824  -0.03283   0.00000
  13        4XY         0.00488  -0.03646  -0.10597  -0.08217   0.00000
  14        4XZ         0.00000   0.00000   0.00000   0.00000  -0.20907
  15        4YZ         0.00000   0.00000   0.00000   0.00000  -0.19647
  16 2   N  1S         -0.02013  -0.05828  -0.01506  -0.01950   0.00000
  17        2S         -0.19068  -0.36202  -0.41709   0.41751   0.00000
  18        2PX         0.01072   0.07432   0.01264  -0.04381   0.00000
  19        2PY         0.26028  -0.02120  -0.08271   0.07402   0.00000
  20        2PZ         0.00000   0.00000   0.00000   0.00000  -0.05406
  21        3S          1.36425   1.04557   2.61607  -1.96258   0.00000
  22        3PX         0.55738   0.17209   1.02446  -0.90944   0.00000
  23        3PY        -0.66790   1.15902  -0.49259   0.44869   0.00000
  24        3PZ         0.00000   0.00000   0.00000   0.00000   0.06319
  25        4XX        -0.10489  -0.09896  -0.08200   0.14855   0.00000
  26        4YY         0.03401  -0.18935  -0.29598  -0.38364   0.00000
  27        4ZZ         0.00791   0.03464   0.14647   0.19831   0.00000
  28        4XY        -0.04231   0.03936  -0.22057   0.00104   0.00000
  29        4XZ         0.00000   0.00000   0.00000   0.00000  -0.24622
  30        4YZ         0.00000   0.00000   0.00000   0.00000  -0.40523
  31 3   O  1S          0.00462   0.00550   0.04931  -0.03258   0.00000
  32        2S          0.01175   0.07159   0.75368  -0.69056   0.00000
  33        2PX         0.30288   0.02416   0.12164  -0.08644   0.00000
  34        2PY         0.37689   0.07596  -0.07632   0.19649   0.00000
  35        2PZ         0.00000   0.00000   0.00000   0.00000   0.00592
  36        3S         -0.36997  -0.49352  -2.68184   2.31663   0.00000
  37        3PX        -0.63898  -0.51866  -0.89234   0.66311   0.00000
  38        3PY        -0.50775  -0.34465   0.68485  -0.73758   0.00000
  39        3PZ         0.00000   0.00000   0.00000   0.00000  -0.25004
  40        4XX         0.08369   0.04852   0.11967  -0.37911   0.00000
  41        4YY        -0.07360   0.00796   0.18502  -0.08505   0.00000
  42        4ZZ         0.00200   0.00243   0.33317  -0.02419   0.00000
  43        4XY         0.01521   0.02526  -0.07019  -0.00665   0.00000
  44        4XZ         0.00000   0.00000   0.00000   0.00000   0.29049
  45        4YZ         0.00000   0.00000   0.00000   0.00000  -0.05406
  46 4   O  1S         -0.00785   0.01050   0.04633   0.01627   0.00000
  47        2S         -0.03906   0.09458   0.62105   0.24294   0.00000
  48        2PX         0.01158  -0.00307  -0.07785  -0.04391   0.00000
  49        2PY        -0.40583   0.44331   0.12295  -0.01893   0.00000
  50        2PZ         0.00000   0.00000   0.00000   0.00000   0.02891
  51        3S          0.41621  -0.68100  -2.31870  -0.86423   0.00000
  52        3PX        -0.24387   0.22718   0.91760   0.30435   0.00000
  53        3PY         0.35722  -1.15332  -0.34157   0.30308   0.00000
  54        3PZ         0.00000   0.00000   0.00000   0.00000  -0.18572
  55        4XX         0.00315   0.00335   0.15262   0.15570   0.00000
  56        4YY         0.03108   0.05377   0.05966  -0.00554   0.00000
  57        4ZZ        -0.06566   0.02248   0.33648   0.06472   0.00000
  58        4XY         0.04948  -0.08665   0.03408   0.15899   0.00000
  59        4XZ         0.00000   0.00000   0.00000   0.00000  -0.08879
  60        4YZ         0.00000   0.00000   0.00000   0.00000   0.23573
  61 5   N  1S          0.00377   0.01978  -0.00991  -0.03416   0.00000
  62        2S          0.31404   0.51805  -0.34076   0.21079   0.00000
  63        2PX        -0.09818  -0.28833  -0.01915  -0.02857   0.00000
  64        2PY        -0.32397  -0.56658   0.01817   0.00379   0.00000
  65        2PZ         0.00000   0.00000   0.00000   0.00000  -0.21980
  66        3S         -0.64626  -0.67251   3.10572  -0.80578   0.00000
  67        3PX        -0.18295   1.09198   0.42397   0.92473   0.00000
  68        3PY         0.89596   2.10641   1.20799  -0.97004   0.00000
  69        3PZ         0.00000   0.00000   0.00000   0.00000   0.36245
  70        4XX        -0.00842   0.11428   0.00224  -0.01325   0.00000
  71        4YY         0.17256   0.15215  -0.29869  -0.36598   0.00000
  72        4ZZ        -0.00357   0.01744   0.15809   0.23039   0.00000
  73        4XY         0.01090   0.08466  -0.20516  -0.18581   0.00000
  74        4XZ         0.00000   0.00000   0.00000   0.00000   0.14123
  75        4YZ         0.00000   0.00000   0.00000   0.00000   0.55979
                          46        47        48        49        50
                        (A")--V   (A')--V   (A")--V   (A')--V   (A")--V
     EIGENVALUES --     1.39087   1.40986   1.46668   1.50316   1.53385
   1 1   O  1S          0.00000  -0.03585   0.00000  -0.05268   0.00000
   2        2S          0.00000  -0.60373   0.00000  -1.08699   0.00000
   3        2PX         0.00000   0.20463   0.00000   0.07182   0.00000
   4        2PY         0.00000  -0.02742   0.00000  -0.12116   0.00000
   5        2PZ        -0.00172   0.00000  -0.18966   0.00000   0.03944
   6        3S          0.00000   2.09488   0.00000   3.96472   0.00000
   7        3PX         0.00000  -0.66188   0.00000  -1.08282   0.00000
   8        3PY         0.00000   0.60791   0.00000   1.03441   0.00000
   9        3PZ        -0.05970   0.00000  -0.03787   0.00000  -0.05961
  10        4XX         0.00000  -0.01451   0.00000  -0.11939   0.00000
  11        4YY         0.00000  -0.42037   0.00000  -0.37428   0.00000
  12        4ZZ         0.00000  -0.01234   0.00000  -0.17971   0.00000
  13        4XY         0.00000   0.01297   0.00000   0.13589   0.00000
  14        4XZ        -0.07938   0.00000  -0.36374   0.00000   0.42519
  15        4YZ         0.03247   0.00000   0.44330   0.00000   0.40868
  16 2   N  1S          0.00000  -0.01401   0.00000   0.02165   0.00000
  17        2S          0.00000   0.33906   0.00000   0.25135   0.00000
  18        2PX         0.00000   0.15393   0.00000   0.03913   0.00000
  19        2PY         0.00000   0.16932   0.00000  -0.04538   0.00000
  20        2PZ        -0.04940   0.00000  -0.24190   0.00000  -0.05479
  21        3S          0.00000  -1.64229   0.00000  -2.71672   0.00000
  22        3PX         0.00000  -0.66291   0.00000  -1.42981   0.00000
  23        3PY         0.00000   0.22275   0.00000   1.07160   0.00000
  24        3PZ         0.05238   0.00000   0.08907   0.00000   0.20271
  25        4XX         0.00000  -0.27010   0.00000  -0.03788   0.00000
  26        4YY         0.00000   0.07409   0.00000   0.25602   0.00000
  27        4ZZ         0.00000   0.19184   0.00000  -0.07722   0.00000
  28        4XY         0.00000  -0.16827   0.00000   0.16355   0.00000
  29        4XZ         0.04383   0.00000   0.55646   0.00000   0.17029
  30        4YZ        -0.10240   0.00000  -0.26807   0.00000   0.41059
  31 3   O  1S          0.00000   0.03785   0.00000   0.03419   0.00000
  32        2S          0.00000   0.67832   0.00000   0.62019   0.00000
  33        2PX         0.00000   0.11440   0.00000   0.00660   0.00000
  34        2PY         0.00000  -0.14480   0.00000  -0.09633   0.00000
  35        2PZ         0.13375   0.00000  -0.03420   0.00000  -0.06109
  36        3S          0.00000  -2.35682   0.00000  -2.01703   0.00000
  37        3PX         0.00000  -0.37176   0.00000  -0.76000   0.00000
  38        3PY         0.00000   0.89964   0.00000   0.53006   0.00000
  39        3PZ         0.02993   0.00000   0.02269   0.00000   0.08810
  40        4XX         0.00000   0.09067   0.00000   0.15415   0.00000
  41        4YY         0.00000   0.32392   0.00000   0.00907   0.00000
  42        4ZZ         0.00000   0.10594   0.00000   0.24411   0.00000
  43        4XY         0.00000  -0.05251   0.00000  -0.08307   0.00000
  44        4XZ        -0.10111   0.00000   0.02518   0.00000   0.27370
  45        4YZ         0.36392   0.00000  -0.05906   0.00000   0.12438
  46 4   O  1S          0.00000  -0.04651   0.00000   0.05930   0.00000
  47        2S          0.00000  -0.93417   0.00000   1.12914   0.00000
  48        2PX         0.00000   0.27444   0.00000  -0.17292   0.00000
  49        2PY         0.00000   0.02557   0.00000  -0.11618   0.00000
  50        2PZ        -0.13462   0.00000   0.03425   0.00000  -0.02683
  51        3S          0.00000   3.17809   0.00000  -3.97367   0.00000
  52        3PX         0.00000  -1.33550   0.00000   1.61128   0.00000
  53        3PY         0.00000  -0.09796   0.00000  -0.03487   0.00000
  54        3PZ        -0.09187   0.00000  -0.01117   0.00000   0.05240
  55        4XX         0.00000  -0.31470   0.00000   0.31429   0.00000
  56        4YY         0.00000  -0.31138   0.00000   0.20703   0.00000
  57        4ZZ         0.00000  -0.03713   0.00000   0.23153   0.00000
  58        4XY         0.00000   0.06300   0.00000  -0.02886   0.00000
  59        4XZ        -0.41261   0.00000   0.06074   0.00000  -0.05344
  60        4YZ        -0.05659   0.00000   0.01050   0.00000   0.29323
  61 5   N  1S          0.00000  -0.01701   0.00000  -0.00275   0.00000
  62        2S          0.00000   0.10926   0.00000  -0.47847   0.00000
  63        2PX         0.00000   0.11566   0.00000  -0.07929   0.00000
  64        2PY         0.00000  -0.07423   0.00000  -0.08499   0.00000
  65        2PZ        -0.03644   0.00000   0.01135   0.00000   0.05487
  66        3S          0.00000  -0.41142   0.00000   3.99218   0.00000
  67        3PX         0.00000  -2.10713   0.00000   1.40008   0.00000
  68        3PY         0.00000   0.67199   0.00000   0.76108   0.00000
  69        3PZ         0.04476   0.00000  -0.02964   0.00000  -0.25271
  70        4XX         0.00000  -0.06634   0.00000   0.06122   0.00000
  71        4YY         0.00000  -0.13415   0.00000   0.02985   0.00000
  72        4ZZ         0.00000   0.14302   0.00000  -0.04197   0.00000
  73        4XY         0.00000  -0.13356   0.00000  -0.02589   0.00000
  74        4XZ         0.57284   0.00000  -0.06005   0.00000   0.15379
  75        4YZ        -0.14028   0.00000   0.03972   0.00000   0.35910
                          51        52        53        54        55
                        (A')--V   (A")--V   (A')--V   (A')--V   (A")--V
     EIGENVALUES --     1.66613   1.76757   1.77556   1.78389   1.82585
   1 1   O  1S         -0.00145   0.00000   0.01026   0.01927   0.00000
   2        2S          0.13839   0.00000   0.02082   0.10074   0.00000
   3        2PX         0.12578   0.00000  -0.03375  -0.03404   0.00000
   4        2PY         0.17191   0.00000   0.07223  -0.03062   0.00000
   5        2PZ         0.00000  -0.01743   0.00000   0.00000  -0.01538
   6        3S         -0.16830   0.00000   0.19699  -0.84946   0.00000
   7        3PX        -0.10308   0.00000  -0.06667   0.24096   0.00000
   8        3PY        -0.26592   0.00000  -0.02916  -0.23408   0.00000
   9        3PZ         0.00000   0.02360   0.00000   0.00000   0.02705
  10        4XX         0.33877   0.00000   0.09653   0.41821   0.00000
  11        4YY        -0.26723   0.00000  -0.26206   0.40217   0.00000
  12        4ZZ        -0.04978   0.00000   0.27275  -0.67358   0.00000
  13        4XY         0.04540   0.00000  -0.09791   0.48187   0.00000
  14        4XZ         0.00000  -0.00347   0.00000   0.00000  -0.34761
  15        4YZ         0.00000  -0.01771   0.00000   0.00000  -0.41801
  16 2   N  1S         -0.00982   0.00000   0.01688  -0.03000   0.00000
  17        2S         -0.05531   0.00000   0.06634  -0.35752   0.00000
  18        2PX         0.11174   0.00000   0.01246   0.00122   0.00000
  19        2PY         0.06501   0.00000   0.04196  -0.04505   0.00000
  20        2PZ         0.00000   0.00131   0.00000   0.00000  -0.00705
  21        3S          0.23870   0.00000  -0.42484   1.45925   0.00000
  22        3PX        -0.10044   0.00000  -0.34591   0.60090   0.00000
  23        3PY         0.26150   0.00000   0.11310   0.29597   0.00000
  24        3PZ         0.00000  -0.00709   0.00000   0.00000  -0.03729
  25        4XX        -0.34689   0.00000  -0.12128  -0.14725   0.00000
  26        4YY         0.16040   0.00000   0.10211  -0.05641   0.00000
  27        4ZZ         0.10799   0.00000   0.08146   0.07468   0.00000
  28        4XY        -0.22897   0.00000  -0.00376  -0.06841   0.00000
  29        4XZ         0.00000   0.01927   0.00000   0.00000   0.23713
  30        4YZ         0.00000   0.00878   0.00000   0.00000   0.27548
  31 3   O  1S         -0.03353   0.00000  -0.02808  -0.00794   0.00000
  32        2S         -0.72501   0.00000  -0.58301  -0.08671   0.00000
  33        2PX        -0.22676   0.00000  -0.05393   0.07993   0.00000
  34        2PY         0.11678   0.00000   0.00552   0.00722   0.00000
  35        2PZ         0.00000   0.04351   0.00000   0.00000   0.05594
  36        3S          2.51683   0.00000   2.50191   0.47708   0.00000
  37        3PX         0.68088   0.00000   0.57531  -0.01037   0.00000
  38        3PY        -0.78388   0.00000  -0.75023  -0.29252   0.00000
  39        3PZ         0.00000  -0.05368   0.00000   0.00000  -0.08233
  40        4XX        -0.11270   0.00000   0.25591  -0.11085   0.00000
  41        4YY        -0.51767   0.00000  -0.04172   0.05922   0.00000
  42        4ZZ         0.15161   0.00000  -0.50540   0.01537   0.00000
  43        4XY        -0.14026   0.00000   0.35679  -0.01333   0.00000
  44        4XZ         0.00000  -0.62152   0.00000   0.00000   0.23538
  45        4YZ         0.00000  -0.30676   0.00000   0.00000   0.51495
  46 4   O  1S          0.01064   0.00000   0.02080  -0.00877   0.00000
  47        2S          0.21714   0.00000   0.37570   0.02412   0.00000
  48        2PX        -0.17698   0.00000  -0.05076   0.05384   0.00000
  49        2PY         0.15459   0.00000   0.02847  -0.07949   0.00000
  50        2PZ         0.00000  -0.03947   0.00000   0.00000   0.04755
  51        3S         -0.76236   0.00000  -1.71487  -0.01178   0.00000
  52        3PX         0.29012   0.00000   0.64711  -0.05856   0.00000
  53        3PY         0.00432   0.00000   0.16550   0.02080   0.00000
  54        3PZ         0.00000   0.05034   0.00000   0.00000  -0.07278
  55        4XX         0.09183   0.00000   0.12867   0.04692   0.00000
  56        4YY         0.21689   0.00000  -0.49711  -0.35919   0.00000
  57        4ZZ        -0.10612   0.00000   0.58314   0.22888   0.00000
  58        4XY         0.33339   0.00000   0.05644  -0.03082   0.00000
  59        4XZ         0.00000  -0.13688   0.00000   0.00000   0.27500
  60        4YZ         0.00000   0.71007   0.00000   0.00000   0.45945
  61 5   N  1S          0.00952   0.00000   0.01003   0.00502   0.00000
  62        2S          0.19882   0.00000  -0.00607   0.38289   0.00000
  63        2PX        -0.20766   0.00000  -0.12761  -0.04609   0.00000
  64        2PY         0.12931   0.00000   0.13175  -0.15674   0.00000
  65        2PZ         0.00000   0.00509   0.00000   0.00000   0.10777
  66        3S         -1.36177   0.00000  -0.43234  -1.10259   0.00000
  67        3PX         1.24325   0.00000   1.79612   0.48082   0.00000
  68        3PY        -0.87976   0.00000  -1.28871   0.47545   0.00000
  69        3PZ         0.00000   0.00077   0.00000   0.00000   0.09298
  70        4XX        -0.15843   0.00000   0.08307   0.08830   0.00000
  71        4YY         0.09747   0.00000  -0.03409  -0.25763   0.00000
  72        4ZZ         0.09162   0.00000   0.01558   0.11979   0.00000
  73        4XY        -0.13474   0.00000   0.16293  -0.00795   0.00000
  74        4XZ         0.00000  -0.00054   0.00000   0.00000  -0.08016
  75        4YZ         0.00000  -0.00939   0.00000   0.00000  -0.18376
[...]
   1.  O   2   2   0   0   0
   2.  N   2   1   0   0   1
   3.  O   0   0   2   0   2
   4.  O   0   0   0   3   1
   5.  N   0   1   2   1   0

         Resonance
    RS   Weight(%)                  Added(Removed)
 ---------------------------------------------------------------------------
    1*(3)  29.59                                                            
    2*(3)  24.53   ( O  3- N  5),  O  4- N  5,  O  3, ( O  4)               
    3*(3)  15.63    O  1- N  2, ( N  2- N  5), ( O  3- N  5),  O  4- N  5,  
                  ( O  1),  O  3, ( O  4),  N  5                           
    4*(2)  12.55    O  1- N  2, ( N  2- N  5), ( O  1),  N  5               
    5       4.51   ( N  2- N  5),  O  4- N  5,  N  2, ( O  4)               
    6       3.12   ( N  2- N  5), ( O  3- N  5),  O  4- N  5,  O  4- N  5,  
                   N  2,  O  3, ( O  4), ( O  4)                           
    7       1.62   ( N  2- N  5),  O  3- N  5,  N  2, ( O  3)               
    8       1.23    O  1- O  4, ( N  2- N  5), ( O  1),  N  2, ( O  4),     
                   N  5                                                    
    9 (2)   1.00    O  1- N  2, ( N  2- N  5),  O  3- N  5, ( O  4- N  5),  
                  ( O  1), ( O  3),  O  4,  N  5                           
   10 (2)   0.97   ( O  3- N  5), ( O  3- N  5),  O  4- N  5,  O  4- N  5,  
                   O  3,  O  3, ( O  4), ( O  4)                           
   11       0.93    N  2- O  3, ( N  2- N  5), ( O  3),  N  5               
   12 (2)   0.90    O  3- N  5, ( O  4- N  5), ( O  3),  O  4               
   13       0.83    N  2- O  4, ( N  2- N  5), ( O  3- N  5),  O  4- N  5,  
                   O  3, ( O  4), ( O  4),  N  5                           
   14       0.67    N  2- O  3, ( N  2- N  5), ( O  3- N  5),  O  4- N  5,  
                  ( O  4),  N  5                                           
   15       0.53    N  2- O  4, ( N  2- N  5), ( O  4),  N  5               
   16       0.50    O  1- O  3, ( N  2- N  5), ( O  1),  N  2, ( O  3),     
                   N  5                                                    
   17       0.45    O  1- N  2, ( N  2- N  5), ( O  3- N  5), ( O  3- N  5),
                   O  4- N  5,  O  4- N  5, ( O  1),  O  3,  O  3, ( O  4),
                  ( O  4),  N  5                                           
   18       0.25   ( N  2- N  5), ( O  3- N  5), ( O  3- N  5),  O  4- N  5,
                   O  3,  O  3, ( O  4),  N  5                             
   19       0.18   ( N  2- N  5), ( O  3- N  5),  O  3,  N  5               
   20-30    0.00
 ---------------------------------------------------------------------------
          100.00   * Total *                [* = reference structure]


 Natural Bond Order:  (total/covalent/ionic)                                   

     Atom       1      2      3      4      5
     ----   ------ ------ ------ ------ ------
   1.  O  t 1.6864 2.2964 0.0050 0.0123 0.0000
          c   ---  1.6867 0.0001 0.0001 0.0000                            
          i   ---  0.6097 0.0049 0.0122 0.0000                            

   2.  N  t 2.2964 1.1098 0.0160 0.0136 0.5599
          c 1.6867   ---  0.0004 0.0004 0.3559                            
          i 0.6097   ---  0.0155 0.0133 0.2041                            

   3.  O  t 0.0050 0.0160 2.4271 0.0000 1.5519
          c 0.0001 0.0004   ---  0.0000 1.2214                            
          i 0.0049 0.0155   ---  0.0000 0.3306                            

   4.  O  t 0.0123 0.0136 0.0000 2.4378 1.5363
          c 0.0001 0.0004 0.0000   ---  1.1884                            
          i 0.0122 0.0133 0.0000   ---  0.3479                            

   5.  N  t 0.0000 0.5599 1.5519 1.5363 0.3476
          c 0.0000 0.3559 1.2214 1.1884   ---                             
          i 0.0000 0.2041 0.3306 0.3479   ---                             


 Natural Atomic Valencies:                                                     

                      Co-    Electro-
     Atom  Valency  Valency  Valency
     ----  -------  -------  -------
   1.  O    2.3136   1.6868   0.6268
   2.  N    2.8859   2.0433   0.8426
   3.  O    1.5729   1.2219   0.3510
   4.  O    1.5622   1.1888   0.3734
   5.  N    3.6481   2.7656   0.8825


 $NRTSTR
   STR        ! Wgt = 29.59%
     LONE 1 2 2 1 3 2 4 3 END
     BOND D 1 2 S 2 5 D 3 5 S 4 5 END
   END
   STR        ! Wgt = 24.53%
     LONE 1 2 2 1 3 3 4 2 END
     BOND D 1 2 S 2 5 S 3 5 D 4 5 END
   END
   STR        ! Wgt = 15.63%
     LONE 1 1 2 1 3 3 4 2 5 1 END
     BOND T 1 2 S 3 5 D 4 5 END
   END
   STR        ! Wgt = 12.55%
     LONE 1 1 2 1 3 2 4 3 5 1 END
     BOND T 1 2 D 3 5 S 4 5 END
   END
 $END
 Full mass-weighted force constant matrix:
 Low frequencies ---  -14.1113  -11.8833   -8.1811   -0.0006   -0.0002    0.0011
 Low frequencies ---  145.5488  218.7295  294.6021
 Diagonal vibrational polarizability:
        3.3803964      15.0661013       1.6109630
 Harmonic frequencies (cm**-1), IR intensities (KM/Mole), Raman scattering
 activities (A**4/AMU), depolarization ratios for plane and unpolarized
 incident light, reduced masses (AMU), force constants (mDyne/A),
 and normal coordinates:
                     1                      2                      3
                    A"                     A'                     A'
 Frequencies --   145.5485               218.7277               294.6012
 Red. masses --    15.0104                15.5719                15.2457
 Frc consts  --     0.1874                 0.4389                 0.7796
 IR Inten    --     0.5050                 1.5897                19.0593
 Atom AN      X      Y      Z        X      Y      Z        X      Y      Z
   1   8     0.00   0.00   0.57    -0.39  -0.24   0.00     0.10   0.55   0.00
   2   7     0.00   0.00  -0.69     0.05   0.36   0.00     0.06   0.54   0.00
   3   8     0.00   0.00   0.37    -0.19  -0.48   0.00    -0.10  -0.37   0.00
   4   8     0.00   0.00  -0.20     0.29   0.48   0.00    -0.04  -0.41   0.00
   5   7     0.00   0.00  -0.16     0.28  -0.07   0.00    -0.02  -0.28   0.00
                     4                      5                      6
                    A"                     A'                     A'
 Frequencies --   462.5590               667.5049               808.7987
 Red. masses --    14.3650                14.8098                15.1611
 Frc consts  --     1.8109                 3.8879                 5.8433
 IR Inten    --     7.7073                15.5450                44.6772
 Atom AN      X      Y      Z        X      Y      Z        X      Y      Z
   1   8     0.00   0.00  -0.04    -0.06  -0.48   0.00    -0.01  -0.02   0.00
   2   7     0.00   0.00   0.23     0.59   0.45   0.00     0.10   0.14   0.00
   3   8     0.00   0.00   0.29    -0.13   0.22   0.00     0.54   0.00   0.00
   4   8     0.00   0.00   0.31    -0.21  -0.26   0.00    -0.37   0.39   0.00
   5   7     0.00   0.00  -0.87    -0.14   0.13   0.00    -0.28  -0.56   0.00
                     7                      8                      9
                    A'                     A'                     A'
 Frequencies --  1395.4612              1762.8722              1938.7602
 Red. masses --    15.1636                14.5914                14.8697
 Frc consts  --    17.3976                26.7170                32.9307
 IR Inten    --   260.5923               312.1432               357.7486
 Atom AN      X      Y      Z        X      Y      Z        X      Y      Z
   1   8    -0.05   0.05   0.00    -0.03   0.00   0.00     0.52  -0.39   0.00
   2   7     0.07  -0.01   0.00     0.07   0.00   0.00    -0.61   0.43   0.00
   3   8    -0.30   0.43   0.00     0.26  -0.30   0.00    -0.01   0.03   0.00
   4   8     0.55   0.03   0.00     0.37  -0.02   0.00     0.08   0.01   0.00
   5   7    -0.29  -0.57   0.00    -0.75   0.37   0.00    -0.07  -0.03   0.00

 -------------------
 - Thermochemistry -
 -------------------
 Temperature   298.150 Kelvin.  Pressure   1.00000 Atm.
 Atom  1 has atomic number  8 and mass  15.99491
 Atom  2 has atomic number  7 and mass  14.00307
 Atom  3 has atomic number  8 and mass  15.99491
 Atom  4 has atomic number  8 and mass  15.99491
 Atom  5 has atomic number  7 and mass  14.00307
 Molecular mass:    75.99089 amu.
 Principal axes and moments of inertia in atomic units:
                           1         2         3
     EIGENVALUES --   145.53097 418.60865 564.13962
           X           -0.03359   0.99944   0.00000
           Y            0.99944   0.03359   0.00000
           Z            0.00000   0.00000   1.00000
 This molecule is an asymmetric top.
 Rotational symmetry number  1.
 Rotational temperatures (Kelvin)      0.59516     0.20691     0.15353
 Rotational constants (GHZ):          12.40108     4.31129     3.19910
 Zero-point vibrational energy      46025.3 (Joules/Mol)
                                   11.00032 (Kcal/Mol)
 Warning -- explicit consideration of   4 degrees of freedom as
           vibrations may cause significant error
 Vibrational temperatures:    209.41   314.70   423.86   665.52   960.39
          (Kelvin)           1163.68  2007.76  2536.38  2789.44
 
 Zero-point correction=                           0.017530 (Hartree/Particle)
 Thermal correction to Energy=                    0.022438
 Thermal correction to Enthalpy=                  0.023382
 Thermal correction to Gibbs Free Energy=        -0.010552
 Sum of electronic and zero-point Energies=           -334.958066
 Sum of electronic and thermal Energies=              -334.953158
 Sum of electronic and thermal Enthalpies=            -334.952214
 Sum of electronic and thermal Free Energies=         -334.986148
 
                     E (Thermal)             CV                S
                      KCal/Mol        Cal/Mol-Kelvin    Cal/Mol-Kelvin
 Total                   14.080             14.379             71.421
 Electronic               0.000              0.000              0.000
 Translational            0.889              2.981             38.900
 Rotational               0.889              2.981             25.045
 Vibrational             12.303              8.418              7.476
 Vibration  1             0.617              1.907              2.730
 Vibration  2             0.646              1.813              1.970
 Vibration  3             0.689              1.684              1.447
 Vibration  4             0.820              1.333              0.759
                       Q            Log10(Q)             Ln(Q)
 Total Bot       0.713640D+05          4.853479         11.175549
 Total V=0       0.825578D+13         12.916758         29.741935
 Vib (Bot)       0.413010D-07         -7.384040        -17.002380
 Vib (Bot)  1    0.139490D+01          0.144543          0.332824
 Vib (Bot)  2    0.904819D+00         -0.043438         -0.100020
 Vib (Bot)  3    0.647488D+00         -0.188769         -0.434656
 Vib (Bot)  4    0.366932D+00         -0.435415         -1.002579
 Vib (V=0)       0.477792D+01          0.679239          1.564006
 Vib (V=0)  1    0.198181D+01          0.297061          0.684009
 Vib (V=0)  2    0.153378D+01          0.185763          0.427734
 Vib (V=0)  3    0.131807D+01          0.119939          0.276169
 Vib (V=0)  4    0.112019D+01          0.049293          0.113501
 Electronic      0.100000D+01          0.000000          0.000000
 Translational   0.260374D+08          7.415597         17.075044
 Rotational      0.663623D+05          4.821922         11.102885
 ***** Axes restored to original set *****
 -------------------------------------------------------------------
 Center     Atomic                   Forces (Hartrees/Bohr)
 Number     Number              X              Y              Z
 -------------------------------------------------------------------
    1          8           0.000218843   -0.000129861    0.000000000
    2          7          -0.000170781    0.000101762    0.000000000
    3          8          -0.000064953    0.000154595    0.000000000
    4          8           0.000267632   -0.000003081    0.000000000
    5          7          -0.000250741   -0.000123416    0.000000000
 -------------------------------------------------------------------
 Cartesian Forces:  Max     0.000267632 RMS     0.000137146
 ------------------------------------------------------------------------
           Internal Coordinate Forces (Hartree/Bohr or radian)
 Cent Atom N1     Length/X     N2     Alpha/Y      N3      Beta/Z       J
 ------------------------------------------------------------------------
   1  O         0.000219(   1)     -0.000130(   6)      0.000000(  11)
   2  N        -0.000171(   2)      0.000102(   7)      0.000000(  12)
   3  O        -0.000065(   3)      0.000155(   8)      0.000000(  13)
   4  O         0.000268(   4)     -0.000003(   9)      0.000000(  14)
   5  N        -0.000251(   5)     -0.000123(  10)      0.000000(  15)
 ------------------------------------------------------------------------
 Internal  Forces:  Max     0.000267632 RMS     0.000137146

 GradGradGradGradGradGradGradGradGradGradGradGradGradGradGradGradGradGrad
 Berny optimization.
 Search for a local minimum.
 Step number   1 out of a maximum of   2
 All quantities printed in internal units (Hartrees-Bohrs-Radians)
 Second derivative matrix not updated -- analytic derivatives used.
 The second derivative matrix:
                          X1        Y1        Z1        X2        Y2
           X1           0.68252
           Y1          -0.49100   0.46311
           Z1           0.00000   0.00000   0.00466
           X2          -0.70563   0.44740   0.00000   0.80023
           Y2           0.47285  -0.40445   0.00000  -0.42698   0.41167
           Z2           0.00000   0.00000  -0.00588   0.00000   0.00000
           X3          -0.00441  -0.00154   0.00000   0.01498   0.00519
           Y3           0.02952  -0.04047   0.00000  -0.00773   0.03438
           Z3           0.00000   0.00000   0.00126   0.00000   0.00000
           X4           0.04327  -0.01645   0.00000  -0.05979   0.02285
           Y4           0.01045   0.00599   0.00000  -0.04192  -0.00494
           Z4           0.00000   0.00000  -0.00338   0.00000   0.00000
           X5          -0.01574   0.06159   0.00000  -0.04977  -0.07391
           Y5          -0.02182  -0.02417   0.00000   0.02923  -0.03666
           Z5           0.00000   0.00000   0.00334   0.00000   0.00000
                          Z2        X3        Y3        Z3        X4
           Z2           0.01099
           X3           0.00000   0.38471
           Y3           0.00000  -0.32989   0.44857
           Z3           0.00544   0.00000   0.00000   0.01370
           X4           0.00000  -0.08757   0.05362   0.00000   0.73684
           Y4           0.00000   0.07177   0.01766   0.00000  -0.03282
           Z4           0.01098   0.00000   0.00000   0.01191   0.00000
           X5           0.00000  -0.30771   0.25448   0.00000  -0.63275
           Y5           0.00000   0.25447  -0.46013   0.00000  -0.02720
           Z5          -0.02153   0.00000   0.00000  -0.03231   0.00000
                          Y4        Z4        X5        Y5        Z5
           Y4           0.10109
           Z4           0.00000   0.01463
           X5          -0.00748   0.00000   1.00598
           Y5          -0.11980   0.00000  -0.23468   0.64075
           Z5           0.00000  -0.03413   0.00000   0.00000   0.08463
     Eigenvalues ---    0.01207   0.02818   0.05015   0.11656   0.25036
     Eigenvalues ---    0.37559   1.12317   1.72188   2.12295
 Angle between quadratic step and forces=  74.35 degrees.
 Linear search not attempted -- first point.
 TrRot=  0.000014  0.000011  0.000000 -0.000002  0.000000 -0.000002
 Variable       Old X    -DE/DX   Delta X   Delta X   Delta X     New X
                                 (Linear)    (Quad)   (Total)
    X1        0.37352   0.00022   0.00000   0.00101   0.00101   0.37453
    Y1       -3.36078  -0.00013   0.00000   0.00032   0.00033  -3.36046
    Z1        0.00000   0.00000   0.00000   0.00000   0.00000   0.00000
    X2       -1.34414  -0.00017   0.00000  -0.00023  -0.00022  -1.34436
    Y2       -2.03656   0.00010   0.00000  -0.00108  -0.00106  -2.03762
    Z2        0.00000   0.00000   0.00000   0.00000   0.00000   0.00000
    X3       -1.47947  -0.00006   0.00000   0.00048   0.00050  -1.47896
    Y3        2.93800   0.00015   0.00000   0.00152   0.00153   2.93953
    Z3        0.00000   0.00000   0.00000   0.00000   0.00000   0.00000
    X4        2.28205   0.00027   0.00000  -0.00048  -0.00047   2.28159
    Y4        1.15353   0.00000   0.00000  -0.00100  -0.00100   1.15253
    Z4        0.00000   0.00000   0.00000   0.00000   0.00000   0.00000
    X5        0.00000  -0.00025   0.00000  -0.00084  -0.00083  -0.00083
    Y5        1.20145  -0.00012   0.00000   0.00018   0.00020   1.20165
    Z5        0.00000   0.00000   0.00000   0.00000   0.00000   0.00000
         Item               Value     Threshold  Converged?
 Maximum Force            0.000268     0.000450     YES
 RMS     Force            0.000137     0.000300     YES
 Maximum Displacement     0.001534     0.001800     YES
 RMS     Displacement     0.000675     0.001200     YES
 Predicted change in Energy=-1.869171D-07
 Optimization completed.
    -- Stationary point found.
 GradGradGradGradGradGradGradGradGradGradGradGradGradGradGradGradGradGrad

 1\1\GINC-SUN\Freq\RB3LYP\6-31G(d)\N2O3\XAVIER\09-Sep-2008\0\\# B3LYP/6
 -31G* FREQ GFPRINT POP=(FULL,NBOREAD) SYMM=(LOOSE)\\InChI=1/H3N2O3/c3-
 1-2(4)5/h1,3H,(H,4,5)\\0,1\O,0.1976618421,-1.7784521053,0.\N,-0.711288
 1579,-1.0777021053,0.\O,-0.7828981579,1.5547178947,0.\O,1.2076118421,0
 .6104178947,0.\N,0.0000018421,0.6357778947,0.\\Version=x86-Linux-G03Re
 vB.05\State=1-A'\HF=-334.9755964\RMSD=5.304e-09\RMSF=1.371e-04\Dipole=
 -0.2050852,-0.7793922,0.\DipoleDeriv=0.0866079,1.3540157,0.,-0.0427524
 ,-1.01522,0.,0.,0.,0.0543203,0.0309433,-1.2306505,0.,0.0501417,1.36996
 85,0.,0.,0.,0.0621013,-0.6746076,0.2553896,0.,0.3460812,-1.2227506,0.,
 0.,0.,-0.1955552,-1.1037279,-0.3646434,0.,-0.1046298,-0.6681667,0.,0.,
 0.,-0.1889487,1.6607843,-0.0141114,0.,-0.2488407,1.5361688,0.,0.,0.,0.
 2680823\Polar=28.8350448,-1.5081394,44.1256492,0.,0.,11.8120602\PG=CS 
 [SG(N2O3)]\NImag=0\\0.68251571,-0.49099877,0.46310506,0.,0.,0.00465688
 ,-0.70563380,0.44740278,0.,0.80022720,0.47284898,-0.40445226,0.,-0.426
 98088,0.41166523,0.,0.,-0.00587580,0.,0.,0.01099219,-0.00441145,-0.001
 54420,0.,0.01497518,0.00519360,0.,0.38471315,0.02952130,-0.04047222,0.
 ,-0.00773333,0.03438124,0.,-0.32988554,0.44856558,0.,0.,0.00126202,0.,
 0.,0.00543848,0.,0.,0.01369860,0.04327124,-0.01644969,0.,-0.05979378,0
 .02284853,0.,-0.08756915,0.05362146,0.,0.73684374,0.01045207,0.0059876
 8,0.,-0.04192186,-0.00493616,0.,0.07176666,0.01765508,0.,-0.03281620,0
 .10109108,0.,0.,-0.00337944,0.,0.,0.01097641,0.,0.,0.01190595,0.,0.,0.
 01462801,-0.01574170,0.06158987,0.,-0.04977480,-0.07391023,0.,-0.30770
 773,0.25447610,0.,-0.63275204,-0.00748067,0.,1.00597628,-0.02182358,-0
 .02416827,0.,0.02923328,-0.03665805,0.,0.25446947,-0.46012968,0.,-0.02
 720410,-0.11979768,0.,-0.23467508,0.64075367,0.,0.,0.00333634,0.,0.,-0
 .02153129,0.,0.,-0.03230506,0.,0.,-0.03413093,0.,0.,0.08463093\\-0.000
 21884,0.00012986,0.,0.00017078,-0.00010176,0.,0.00006495,-0.00015460,0
 .,-0.00026763,0.00000308,0.,0.00025074,0.00012342,0.\\\@


 THOSE WHO ASPIRE NOT TO GUESS AND DIVINE,
 BUT TO DISCOVER AND KNOW, WHO PROPOSE NOT TO DEVISE 
 MIMIC AND FABULOUS WORLDS OF THEIR OWN, BUT TO 
 EXAMINE AND DISSECT THE NATURE OF THIS VERY WORLD 
 ITSELF, MUST GO TO THE FACTS THEMSELVES FOR EVERYTHING.

                               -- FRANCIS BACON, 1620
 Job cpu time:  0 days  0 hours  1 minutes 57.7 seconds.
 File lengths (MBytes):  RWF=     13 Int=      0 D2E=      0 Chk=      4 Scr=      1
 Normal termination of Gaussian 03 at Tue Sep  9 16:40:00 2008.
