 Entering Gaussian System, Link 0=/gaussian/g03/g03
 Input=no.nbo.com
 Output=no.nbo.log
 Initial command:
 /gaussian/g03/l1.exe /scratch/Gau-5092.inp -scrdir=/scratch/
 Entering Link 1 = /gaussian/g03/l1.exe PID=      5093.
  
 Copyright (c) 1988,1990,1992,1993,1995,1998,2003, Gaussian, Inc.
                  All Rights Reserved.
  
 This is the Gaussian(R) 03 program.  It is based on the
 the Gaussian(R) 98 system (copyright 1998, Gaussian, Inc.),
 the Gaussian(R) 94 system (copyright 1995, Gaussian, Inc.),
 the Gaussian 92(TM) system (copyright 1992, Gaussian, Inc.),
 the Gaussian 90(TM) system (copyright 1990, Gaussian, Inc.),
 the Gaussian 88(TM) system (copyright 1988, Gaussian, Inc.),
 the Gaussian 86(TM) system (copyright 1986, Carnegie Mellon
 University), and the Gaussian 82(TM) system (copyright 1983,
 Carnegie Mellon University). Gaussian is a federally registered
 trademark of Gaussian, Inc.
  
 This software contains proprietary and confidential information,
 including trade secrets, belonging to Gaussian, Inc.
  
 This software is provided under written license and may be
 used, copied, transmitted, or stored only in accord with that
 written license.
  
 The following legend is applicable only to US Government
 contracts under DFARS:
  
                    RESTRICTED RIGHTS LEGEND
  
 Use, duplication or disclosure by the US Government is subject
 to restrictions as set forth in subparagraph (c)(1)(ii) of the
 Rights in Technical Data and Computer Software clause at DFARS
 252.227-7013.
  
 Gaussian, Inc.
 Carnegie Office Park, Building 6, Pittsburgh, PA 15106 USA
  
 The following legend is applicable only to US Government
 contracts under FAR:
  
                    RESTRICTED RIGHTS LEGEND
  
 Use, reproduction and disclosure by the US Government is subject
 to restrictions as set forth in subparagraph (c) of the
 Commercial Computer Software - Restricted Rights clause at FAR
 52.227-19.
  
 Gaussian, Inc.
 Carnegie Office Park, Building 6, Pittsburgh, PA 15106 USA
  
  
 ---------------------------------------------------------------
 Warning -- This program may not be used in any manner that
 competes with the business of Gaussian, Inc. or will provide
 assistance to any competitor of Gaussian, Inc.  The licensee
 of this program is prohibited from giving any competitor of
 Gaussian, Inc. access to this program.  By using this program,
 the user acknowledges that Gaussian, Inc. is engaged in the
 business of creating and licensing software in the field of
 computational chemistry and represents and warrants to the
 licensee that it is not a competitor of Gaussian, Inc. and that
 it will not use this program in any manner prohibited above.
 ---------------------------------------------------------------
  

 Cite this work as:
 Gaussian 03, Revision B.05,
 M. J. Frisch, G. W. Trucks, H. B. Schlegel, G. E. Scuseria, 
 M. A. Robb, J. R. Cheeseman, J. A. Montgomery, Jr., T. Vreven, 
 K. N. Kudin, J. C. Burant, J. M. Millam, S. S. Iyengar, J. Tomasi, 
 V. Barone, B. Mennucci, M. Cossi, G. Scalmani, N. Rega, 
 G. A. Petersson, H. Nakatsuji, M. Hada, M. Ehara, K. Toyota, 
 R. Fukuda, J. Hasegawa, M. Ishida, T. Nakajima, Y. Honda, O. Kitao, 
 H. Nakai, M. Klene, X. Li, J. E. Knox, H. P. Hratchian, J. B. Cross, 
 C. Adamo, J. Jaramillo, R. Gomperts, R. E. Stratmann, O. Yazyev, 
 A. J. Austin, R. Cammi, C. Pomelli, J. W. Ochterski, P. Y. Ayala, 
 K. Morokuma, G. A. Voth, P. Salvador, J. J. Dannenberg, 
 V. G. Zakrzewski, S. Dapprich, A. D. Daniels, M. C. Strain, 
 O. Farkas, D. K. Malick, A. D. Rabuck, K. Raghavachari, 
 J. B. Foresman, J. V. Ortiz, Q. Cui, A. G. Baboul, S. Clifford, 
 J. Cioslowski, B. B. Stefanov, G. Liu, A. Liashenko, P. Piskorz, 
 I. Komaromi, R. L. Martin, D. J. Fox, T. Keith, M. A. Al-Laham, 
 C. Y. Peng, A. Nanayakkara, M. Challacombe, P. M. W. Gill, 
 B. Johnson, W. Chen, M. W. Wong, C. Gonzalez, and J. A. Pople, 
 Gaussian, Inc., Pittsburgh PA, 2003.
 
 **********************************************
 Gaussian 03:  x86-Linux-G03RevB.05  8-Nov-2003
                   9-Sep-2008 
 **********************************************
 %chk=../CHK/no.chk
 --------------------------------------------------------------------
 # b3lyp/6-31g* pop=(full,nboread) gfprint freq guess=read geom=check
 --------------------------------------------------------------------
 1/10=4,29=2,30=1,38=1/1,3;
 2/40=1/2;
 3/5=1,6=6,7=1,11=2,16=1,24=100,25=1,30=1,74=-5/1,2,3;
 4/5=1/1;
 5/5=2,38=6/2;
 8/6=4,10=90,11=11/1;
 11/6=1,8=1,9=11,15=111,16=1/1,2,10;
 10/6=1/2;
 6/7=3,18=1,28=1,40=1/1,7;
 7/8=1,10=1,25=1/1,2,3,16;
 1/10=4,30=1/3;
 99//99;
 ---------------
 InChI=1/NO/c1-2
 ---------------
 No Z-matrix found on checkpoint file.
 Cartesian coordinates read from the checkpoint file:
 ../CHK/no.chk
 Charge =  0 Multiplicity = 2
  N                                                 0.000000000000      0.000000000000     -0.617976890427
  O                                                 0.000000000000      0.000000000000      0.540729781770
 Recover connectivity data from disk.

 GradGradGradGradGradGradGradGradGradGradGradGradGradGradGradGradGradGrad
 Berny optimization.
 Initialization pass.
 Trust Radius=3.00D-01 FncErr=1.00D-07 GrdErr=1.00D-07
 Number of steps in this run=   2 maximum allowed number of steps=   2.
 GradGradGradGradGradGradGradGradGradGradGradGradGradGradGradGradGradGrad

                          Input orientation:                          
 ---------------------------------------------------------------------
 Center     Atomic     Atomic              Coordinates (Angstroms)
 Number     Number      Type              X           Y           Z
 ---------------------------------------------------------------------
    1          7             0        0.000000    0.000000   -0.617977
    2          8             0        0.000000    0.000000    0.540730
 ---------------------------------------------------------------------
 Stoichiometry    NO(2)
 Framework group  C*V[C*(NO)]
 Deg. of freedom     1
 Full point group                 C*V     NOp   4
 Largest Abelian subgroup         C2V     NOp   4
 Largest concise Abelian subgroup C1      NOp   1
                         Standard orientation:                         
 ---------------------------------------------------------------------
 Center     Atomic     Atomic              Coordinates (Angstroms)
 Number     Number      Type              X           Y           Z
 ---------------------------------------------------------------------
    1          7             0        0.000000    0.000000   -0.617977
    2          8             0        0.000000    0.000000    0.540730
 ---------------------------------------------------------------------
 Rotational constants (GHZ):      0.0000000     50.4146791     50.4146791
 Standard basis: 6-31G(d) (6D, 7F)
 AO basis set:
 Atom N1       Shell     1 S   6     bf    1 -     1          0.000000000000          0.000000000000         -1.167807082667
      0.4173511460D+04  0.1834772160D-02
      0.6274579110D+03  0.1399462700D-01
      0.1429020930D+03  0.6858655181D-01
      0.4023432930D+02  0.2322408730D+00
      0.1282021290D+02  0.4690699481D+00
      0.4390437010D+01  0.3604551991D+00
 Atom N1       Shell     2 SP   3    bf    2 -     5          0.000000000000          0.000000000000         -1.167807082667
      0.1162636186D+02 -0.1149611817D+00  0.6757974388D-01
      0.2716279807D+01 -0.1691174786D+00  0.3239072959D+00
      0.7722183966D+00  0.1145851947D+01  0.7408951398D+00
 Atom N1       Shell     3 SP   1    bf    6 -     9          0.000000000000          0.000000000000         -1.167807082667
      0.2120314975D+00  0.1000000000D+01  0.1000000000D+01
 Atom N1       Shell     4 D   1     bf   10 -    15          0.000000000000          0.000000000000         -1.167807082667
      0.8000000000D+00  0.1000000000D+01
 Atom O2       Shell     5 S   6     bf   16 -    16          0.000000000000          0.000000000000          1.021831197333
      0.5484671660D+04  0.1831074430D-02
      0.8252349460D+03  0.1395017220D-01
      0.1880469580D+03  0.6844507810D-01
      0.5296450000D+02  0.2327143360D+00
      0.1689757040D+02  0.4701928980D+00
      0.5799635340D+01  0.3585208530D+00
 Atom O2       Shell     6 SP   3    bf   17 -    20          0.000000000000          0.000000000000          1.021831197333
      0.1553961625D+02 -0.1107775495D+00  0.7087426823D-01
      0.3599933586D+01 -0.1480262627D+00  0.3397528391D+00
      0.1013761750D+01  0.1130767015D+01  0.7271585773D+00
 Atom O2       Shell     7 SP   1    bf   21 -    24          0.000000000000          0.000000000000          1.021831197333
      0.2700058226D+00  0.1000000000D+01  0.1000000000D+01
 Atom O2       Shell     8 D   1     bf   25 -    30          0.000000000000          0.000000000000          1.021831197333
      0.8000000000D+00  0.1000000000D+01
 There are    16 symmetry adapted basis functions of A1  symmetry.
 There are     2 symmetry adapted basis functions of A2  symmetry.
 There are     6 symmetry adapted basis functions of B1  symmetry.
 There are     6 symmetry adapted basis functions of B2  symmetry.
 Integral buffers will be    262144 words long.
 Raffenetti 2 integral format.
 Two-electron integral symmetry is turned on.
    30 basis functions,    56 primitive gaussians,    30 cartesian basis functions
     8 alpha electrons        7 beta electrons
       nuclear repulsion energy        25.5750004517 Hartrees.
 NAtoms=    2 NActive=    2 NUniq=    2 SFac= 1.00D+00 NAtFMM=   60 Big=F
 One-electron integrals computed using PRISM.
 NBasis=    30 RedAO= T  NBF=    16     2     6     6
 NBsUse=    30 1.00D-06 NBFU=    16     2     6     6
 Initial guess read from the checkpoint file:
 ../CHK/no.chk
 Initial guess orbital symmetries:
 Alpha Orbitals:
       Occupied  (SG) (SG) (SG) (SG) (PI) (PI) (SG) (PI)
       Virtual   (PI) (SG) (PI) (SG) (PI) (SG) (SG) (PI) (PI) (SG)
                 (DLTA) (DLTA) (PI) (PI) (DLTA) (DLTA) (SG) (PI)
                 (PI) (SG) (SG) (SG)
 Beta  Orbitals:
       Occupied  (SG) (SG) (SG) (SG) (PI) (PI) (SG)
       Virtual   (PI) (PI) (SG) (SG) (PI) (SG) (PI) (SG) (PI) (PI)
                 (SG) (DLTA) (DLTA) (PI) (PI) (DLTA) (DLTA) (SG)
                 (PI) (PI) (SG) (SG) (SG)
 <S**2> of initial guess= 0.7525
 Requested convergence on RMS density matrix=1.00D-08 within 128 cycles.
 Requested convergence on MAX density matrix=1.00D-06.
 Requested convergence on             energy=1.00D-06.
 No special actions if energy rises.
 Keep R1 and R2 integrals in memory in canonical form, NReq=      697247.
 SCF Done:  E(UB+HF-LYP) =  -129.888156204     A.U. after    1 cycles
             Convg  =    0.2699D-09             -V/T =  2.0088
             S**2   =   0.7525
 Annihilation of the first spin contaminant:
 S**2 before annihilation     0.7525,   after     0.7500
 Range of M.O.s used for correlation:     1    30
 NBasis=    30 NAE=     8 NBE=     7 NFC=     0 NFV=     0
 NROrb=     30 NOA=     8 NOB=     7 NVA=    22 NVB=    23
 Symmetrizing basis deriv contribution to polar:
 IMax=3 JMax=2 DiffMx= 0.00D+00
 G2DrvN: will do    3 centers at a time, making    1 passes doing MaxLOS=2.
 FoFDir/FoFCou used for L=0 through L=2.
          Differentiating once with respect to electric field.
                with respect to dipole field.
          Differentiating once with respect to nuclear coordinates.
          Store integrals in memory, NReq=      647029.
          There are   9 degrees of freedom in the 1st order CPHF.
     6 vectors were produced by pass  0.
 AX will form   6 AO Fock derivatives at one time.
     6 vectors were produced by pass  1.
     6 vectors were produced by pass  2.
     6 vectors were produced by pass  3.
     6 vectors were produced by pass  4.
     6 vectors were produced by pass  5.
     6 vectors were produced by pass  6.
     3 vectors were produced by pass  7.
     1 vectors were produced by pass  8.
     1 vectors were produced by pass  9.
 Inv2:  IOpt= 1 Iter= 1 AM= 8.08D-16 Conv= 1.00D-12.
 Inverted reduced A of dimension   47 with in-core refinement.
 Isotropic polarizability for W=    0.000000        7.60 Bohr**3.
 End of Minotr Frequency-dependent properties file   721 does not exist.

 **********************************************************************

            Population analysis using the SCF density.

 **********************************************************************

 Orbital symmetries:
 Alpha Orbitals:
       Occupied  (SG) (SG) (SG) (SG) (PI) (PI) (SG) (PI)
       Virtual   (PI) (SG) (PI) (SG) (PI) (SG) (SG) (PI) (PI) (SG)
                 (DLTA) (DLTA) (PI) (PI) (DLTA) (DLTA) (SG) (PI)
                 (PI) (SG) (SG) (SG)
 Beta  Orbitals:
       Occupied  (SG) (SG) (SG) (SG) (PI) (PI) (SG)
       Virtual   (PI) (PI) (SG) (SG) (PI) (SG) (PI) (SG) (PI) (PI)
                 (SG) (DLTA) (DLTA) (PI) (PI) (DLTA) (DLTA) (SG)
                 (PI) (PI) (SG) (SG) (SG)
 Unable to determine electronic state:  partially filled degenerate orbitals.
 Alpha  occ. eigenvalues --  -19.29240 -14.47855  -1.24220  -0.68704  -0.53135
 Alpha  occ. eigenvalues --   -0.50491  -0.48206  -0.21562
 Alpha virt. eigenvalues --   -0.10501   0.31492   0.62321   0.62357   0.63635
 Alpha virt. eigenvalues --    0.65995   0.79163   0.87990   0.88925   1.32498
 Alpha virt. eigenvalues --    1.47232   1.47448   1.50763   1.50770   1.91011
 Alpha virt. eigenvalues --    1.91236   2.37568   2.56197   2.56380   2.79698
 Alpha virt. eigenvalues --    3.27024   3.55477
  Beta  occ. eigenvalues --  -19.28232 -14.46341  -1.22038  -0.65016  -0.49474
  Beta  occ. eigenvalues --   -0.45793  -0.45792
  Beta virt. eigenvalues --   -0.08865  -0.04597   0.32974   0.63907   0.64602
  Beta virt. eigenvalues --    0.67318   0.67547   0.79868   0.89404   0.91651
  Beta virt. eigenvalues --    1.33614   1.50495   1.50498   1.51152   1.54244
  Beta virt. eigenvalues --    1.94897   1.94906   2.39702   2.56965   2.60084
  Beta virt. eigenvalues --    2.80803   3.29631   3.57241
     Alpha Molecular Orbital Coefficients
                           1         2         3         4         5
                        (SG)--O   (SG)--O   (SG)--O   (SG)--O   (PI)--O
     EIGENVALUES --   -19.29240 -14.47855  -1.24220  -0.68704  -0.53135
   1 1   N  1S          0.00014   0.99275  -0.12657   0.16098   0.00000
   2        2S          0.00057   0.03531   0.27936  -0.37943   0.00000
   3        2PX         0.00000   0.00000   0.00000   0.00000   0.00000
   4        2PY         0.00000   0.00000   0.00000   0.00000   0.40729
   5        2PZ        -0.00007   0.00249   0.20783   0.03176   0.00000
   6        3S         -0.00382   0.00489   0.10838  -0.42005   0.00000
   7        3PX         0.00000   0.00000   0.00000   0.00000   0.00000
   8        3PY         0.00000   0.00000   0.00000   0.00000   0.18897
   9        3PZ        -0.00225   0.00066   0.00790   0.00857   0.00000
  10        4XX         0.00033  -0.00844  -0.01404   0.00432   0.00000
  11        4YY         0.00030  -0.00806  -0.01311  -0.00151   0.00000
  12        4ZZ        -0.00089  -0.00737   0.02768   0.02092   0.00000
  13        4XY         0.00000   0.00000   0.00000   0.00000   0.00000
  14        4XZ         0.00000   0.00000   0.00000   0.00000   0.00000
  15        4YZ         0.00000   0.00000   0.00000   0.00000   0.03488
  16 2   O  1S          0.99279  -0.00001  -0.18073  -0.14510   0.00000
  17        2S          0.02638   0.00063   0.41347   0.33005   0.00000
  18        2PX         0.00000   0.00000   0.00000   0.00000   0.00000
  19        2PY         0.00000   0.00000   0.00000   0.00000   0.52934
  20        2PZ        -0.00144   0.00019  -0.19082   0.31314   0.00000
  21        3S          0.01257  -0.00284   0.30930   0.49694   0.00000
  22        3PX         0.00000   0.00000   0.00000   0.00000   0.00000
  23        3PY         0.00000   0.00000   0.00000   0.00000   0.28498
  24        3PZ        -0.00162   0.00169  -0.06049   0.12472   0.00000
  25        4XX        -0.00802   0.00052  -0.00566   0.00109   0.00000
  26        4YY        -0.00787   0.00046  -0.00674   0.00407   0.00000
  27        4ZZ        -0.00733  -0.00106   0.01979  -0.03637   0.00000
  28        4XY         0.00000   0.00000   0.00000   0.00000   0.00000
  29        4XZ         0.00000   0.00000   0.00000   0.00000   0.00000
  30        4YZ         0.00000   0.00000   0.00000   0.00000  -0.03049
                           6         7         8         9        10
                        (PI)--O   (SG)--O   (PI)--O   (PI)--V   (SG)--V
     EIGENVALUES --    -0.50491  -0.48206  -0.21562  -0.10501   0.31492
   1 1   N  1S          0.00000  -0.10061   0.00000   0.00000   0.07922
   2        2S          0.00000   0.20187   0.00000   0.00000  -0.10865
   3        2PX         0.38217   0.00000   0.00000   0.56548   0.00000
   4        2PY         0.00000   0.00000   0.58899   0.00000   0.00000
   5        2PZ         0.00000  -0.46926   0.00000   0.00000  -0.33504
   6        3S          0.00000   0.47300   0.00000   0.00000  -2.06173
   7        3PX         0.19279   0.00000   0.00000   0.50323   0.00000
   8        3PY         0.00000   0.00000   0.45467   0.00000   0.00000
   9        3PZ         0.00000  -0.16128   0.00000   0.00000  -1.86720
  10        4XX         0.00000   0.00376   0.00000   0.00000   0.00724
  11        4YY         0.00000   0.00931   0.00000   0.00000   0.00446
  12        4ZZ         0.00000  -0.04553   0.00000   0.00000   0.01184
  13        4XY         0.00000   0.00000   0.00000   0.00000   0.00000
  14        4XZ         0.03968   0.00000   0.00000  -0.00649   0.00000
  15        4YZ         0.00000   0.00000  -0.00812   0.00000   0.00000
  16 2   O  1S          0.00000  -0.02702   0.00000   0.00000  -0.10992
  17        2S          0.00000   0.04046   0.00000   0.00000   0.27265
  18        2PX         0.52443   0.00000   0.00000  -0.46591   0.00000
  19        2PY         0.00000   0.00000  -0.48727   0.00000   0.00000
  20        2PZ         0.00000   0.42367   0.00000   0.00000  -0.32206
  21        3S          0.00000   0.14129   0.00000   0.00000   2.08723
  22        3PX         0.30347   0.00000   0.00000  -0.41969   0.00000
  23        3PY         0.00000   0.00000  -0.39741   0.00000   0.00000
  24        3PZ         0.00000   0.22383   0.00000   0.00000  -1.29984
  25        4XX         0.00000   0.00047   0.00000   0.00000  -0.01214
  26        4YY         0.00000   0.00158   0.00000   0.00000  -0.00992
  27        4ZZ         0.00000  -0.01785   0.00000   0.00000   0.04862
  28        4XY         0.00000   0.00000   0.00000   0.00000   0.00000
  29        4XZ        -0.03666   0.00000   0.00000  -0.01050   0.00000
  30        4YZ         0.00000   0.00000  -0.00973   0.00000   0.00000
                          11        12        13        14        15
                        (PI)--V   (SG)--V   (PI)--V   (SG)--V   (SG)--V
     EIGENVALUES --     0.62321   0.62357   0.63635   0.65995   0.79163
   1 1   N  1S          0.00000   0.03001   0.00000   0.01103   0.03945
   2        2S          0.00000  -1.03175   0.00000   0.52102   0.42527
   3        2PX         0.00000   0.00000  -0.90322   0.00000   0.00000
   4        2PY        -0.88625   0.00000   0.00000   0.00000   0.00000
   5        2PZ         0.00000  -0.37048   0.00000  -0.84702   0.10344
   6        3S          0.00000   1.73123   0.00000  -0.56781  -0.18665
   7        3PX         0.00000   0.00000   1.09881   0.00000   0.00000
   8        3PY         1.12812   0.00000   0.00000   0.00000   0.00000
   9        3PZ         0.00000   0.72176   0.00000   1.08232  -0.08979
  10        4XX         0.00000  -0.20195   0.00000   0.10509   0.01669
  11        4YY         0.00000  -0.21099   0.00000   0.10654   0.01880
  12        4ZZ         0.00000  -0.07079   0.00000   0.24443   0.31173
  13        4XY         0.00000   0.00000   0.00000   0.00000   0.00000
  14        4XZ         0.00000   0.00000  -0.04727   0.00000   0.00000
  15        4YZ        -0.04357   0.00000   0.00000   0.00000   0.00000
  16 2   O  1S          0.00000  -0.02963   0.00000  -0.02223  -0.00147
  17        2S          0.00000  -0.29814   0.00000   0.25679  -0.45026
  18        2PX         0.00000   0.00000  -0.20552   0.00000   0.00000
  19        2PY        -0.19441   0.00000   0.00000   0.00000   0.00000
  20        2PZ         0.00000  -0.38278   0.00000  -0.14327  -0.69135
  21        3S          0.00000  -0.11803   0.00000  -0.75551   0.68405
  22        3PX         0.00000   0.00000   0.00102   0.00000   0.00000
  23        3PY        -0.03070   0.00000   0.00000   0.00000   0.00000
  24        3PZ         0.00000   0.23806   0.00000   0.05875   1.17218
  25        4XX         0.00000  -0.04451   0.00000   0.09788  -0.17679
  26        4YY         0.00000  -0.05005   0.00000   0.09827  -0.17404
  27        4ZZ         0.00000  -0.33309   0.00000  -0.09098  -0.21238
  28        4XY         0.00000   0.00000   0.00000   0.00000   0.00000
  29        4XZ         0.00000   0.00000   0.09281   0.00000   0.00000
  30        4YZ         0.08638   0.00000   0.00000   0.00000   0.00000
                          16        17        18        19        20
                        (PI)--V   (PI)--V   (SG)--V  (DLTA)--  (DLTA)--
     EIGENVALUES --     0.87990   0.88925   1.32498   1.47232   1.47448
   1 1   N  1S          0.00000   0.00000  -0.00203   0.00000  -0.00022
   2        2S          0.00000   0.00000   0.54510   0.00000   0.00805
   3        2PX         0.00000   0.21381   0.00000   0.00000   0.00000
   4        2PY         0.18759   0.00000   0.00000   0.00000   0.00000
   5        2PZ         0.00000   0.00000  -0.00883   0.00000   0.00118
   6        3S          0.00000   0.00000  -4.21136   0.00000  -0.07036
   7        3PX         0.00000  -0.67076   0.00000   0.00000   0.00000
   8        3PY        -0.65625   0.00000   0.00000   0.00000   0.00000
   9        3PZ         0.00000   0.00000  -2.36575   0.00000  -0.04412
  10        4XX         0.00000   0.00000   0.13380   0.00000  -0.61139
  11        4YY         0.00000   0.00000   0.11596   0.00000   0.61185
  12        4ZZ         0.00000   0.00000  -0.11427   0.00000  -0.01085
  13        4XY         0.00000   0.00000   0.00000   0.70845   0.00000
  14        4XZ         0.00000  -0.05229   0.00000   0.00000   0.00000
  15        4YZ        -0.04885   0.00000   0.00000   0.00000   0.00000
  16 2   O  1S          0.00000   0.00000  -0.09446   0.00000  -0.00281
  17        2S          0.00000   0.00000  -1.70087   0.00000  -0.02885
  18        2PX         0.00000  -0.89515   0.00000   0.00000   0.00000
  19        2PY        -0.88506   0.00000   0.00000   0.00000   0.00000
  20        2PZ         0.00000   0.00000   0.34278   0.00000   0.00192
  21        3S          0.00000   0.00000   6.01519   0.00000   0.11703
  22        3PX         0.00000   1.29656   0.00000   0.00000   0.00000
  23        3PY         1.30617   0.00000   0.00000   0.00000   0.00000
  24        3PZ         0.00000   0.00000  -2.42957   0.00000  -0.04621
  25        4XX         0.00000   0.00000  -0.36147   0.00000  -0.53689
  26        4YY         0.00000   0.00000  -0.38801   0.00000   0.52217
  27        4ZZ         0.00000   0.00000  -0.50291   0.00000  -0.01657
  28        4XY         0.00000   0.00000   0.00000   0.60931   0.00000
  29        4XZ         0.00000   0.02429   0.00000   0.00000   0.00000
  30        4YZ         0.02643   0.00000   0.00000   0.00000   0.00000
                          21        22        23        24        25
                        (PI)--V   (PI)--V  (DLTA)--  (DLTA)--   (SG)--V
     EIGENVALUES --     1.50763   1.50770   1.91011   1.91236   2.37568
   1 1   N  1S          0.00000   0.00000   0.00000   0.00034  -0.10686
   2        2S          0.00000   0.00000   0.00000  -0.00281  -0.08750
   3        2PX         0.00000  -0.23908   0.00000   0.00000   0.00000
   4        2PY        -0.22741   0.00000   0.00000   0.00000   0.00000
   5        2PZ         0.00000   0.00000   0.00000  -0.00131   0.01896
   6        3S          0.00000   0.00000   0.00000   0.01541   1.07473
   7        3PX         0.00000   0.07322   0.00000   0.00000   0.00000
   8        3PY         0.07300   0.00000   0.00000   0.00000   0.00000
   9        3PZ         0.00000   0.00000   0.00000   0.00546   0.79170
  10        4XX         0.00000   0.00000   0.00000  -0.62671  -0.79383
  11        4YY         0.00000   0.00000   0.00000   0.62598  -0.78379
  12        4ZZ         0.00000   0.00000   0.00000  -0.00706   0.97958
  13        4XY         0.00000   0.00000  -0.72123   0.00000   0.00000
  14        4XZ         0.00000   0.61777   0.00000   0.00000   0.00000
  15        4YZ         0.62157   0.00000   0.00000   0.00000   0.00000
  16 2   O  1S          0.00000   0.00000   0.00000   0.00074  -0.03893
  17        2S          0.00000   0.00000   0.00000   0.01014  -0.42097
  18        2PX         0.00000  -0.18327   0.00000   0.00000   0.00000
  19        2PY        -0.17495   0.00000   0.00000   0.00000   0.00000
  20        2PZ         0.00000   0.00000   0.00000  -0.00574   0.63642
  21        3S          0.00000   0.00000   0.00000  -0.02581  -0.30477
  22        3PX         0.00000  -0.03905   0.00000   0.00000   0.00000
  23        3PY        -0.04195   0.00000   0.00000   0.00000   0.00000
  24        3PZ         0.00000   0.00000   0.00000   0.00966  -0.05135
  25        4XX         0.00000   0.00000   0.00000   0.70161  -0.31815
  26        4YY         0.00000   0.00000   0.00000  -0.69259  -0.31888
  27        4ZZ         0.00000   0.00000   0.00000   0.00522  -0.01402
  28        4XY         0.00000   0.00000   0.80673   0.00000   0.00000
  29        4XZ         0.00000  -0.58284   0.00000   0.00000   0.00000
  30        4YZ        -0.58089   0.00000   0.00000   0.00000   0.00000
                          26        27        28        29        30
                        (PI)--V   (PI)--V   (SG)--V   (SG)--V   (SG)--V
     EIGENVALUES --     2.56197   2.56380   2.79698   3.27024   3.55477
   1 1   N  1S          0.00000   0.00000  -0.02575  -0.36375   0.17385
   2        2S          0.00000   0.00000  -0.74793   1.32612  -0.37983
   3        2PX         0.00000   0.18161   0.00000   0.00000   0.00000
   4        2PY         0.17981   0.00000   0.00000   0.00000   0.00000
   5        2PZ         0.00000   0.00000  -1.10696  -0.22228   0.15690
   6        3S          0.00000   0.00000  -2.24591   0.56366  -2.93182
   7        3PX         0.00000   0.44131   0.00000   0.00000   0.00000
   8        3PY         0.44354   0.00000   0.00000   0.00000   0.00000
   9        3PZ         0.00000   0.00000  -1.34397  -0.45341  -1.25946
  10        4XX         0.00000   0.00000   0.23128  -1.07293   0.61632
  11        4YY         0.00000   0.00000   0.23351  -1.07922   0.61792
  12        4ZZ         0.00000   0.00000  -0.85287  -1.57956   0.58761
  13        4XY         0.00000   0.00000   0.00000   0.00000   0.00000
  14        4XZ         0.00000   1.05722   0.00000   0.00000   0.00000
  15        4YZ         1.05547   0.00000   0.00000   0.00000   0.00000
  16 2   O  1S          0.00000   0.00000  -0.03443  -0.16138  -0.47279
  17        2S          0.00000   0.00000  -0.67380   0.30352  -0.11978
  18        2PX         0.00000  -0.04476   0.00000   0.00000   0.00000
  19        2PY        -0.04317   0.00000   0.00000   0.00000   0.00000
  20        2PZ         0.00000   0.00000  -0.33392  -0.28865   0.28392
  21        3S          0.00000   0.00000   3.27628   1.58063   5.30472
  22        3PX         0.00000  -0.54653   0.00000   0.00000   0.00000
  23        3PY        -0.54918   0.00000   0.00000   0.00000   0.00000
  24        3PZ         0.00000   0.00000  -2.01423  -0.57192  -1.25957
  25        4XX         0.00000   0.00000  -0.64688  -0.58615  -1.63205
  26        4YY         0.00000   0.00000  -0.64345  -0.58792  -1.63528
  27        4ZZ         0.00000   0.00000   1.57033  -0.19512  -1.40951
  28        4XY         0.00000   0.00000   0.00000   0.00000   0.00000
  29        4XZ         0.00000   1.06508   0.00000   0.00000   0.00000
  30        4YZ         1.06684   0.00000   0.00000   0.00000   0.00000
     Beta Molecular Orbital Coefficients.
                           1         2         3         4         5
                        (SG)--O   (SG)--O   (SG)--O   (SG)--O   (PI)--O
     EIGENVALUES --   -19.28232 -14.46341  -1.22038  -0.65016  -0.49474
   1 1   N  1S          0.00014   0.99312  -0.12358   0.15282   0.00000
   2        2S          0.00050   0.03372   0.26471  -0.35447   0.00000
   3        2PX         0.00000   0.00000   0.00000   0.00000   0.36825
   4        2PY         0.00000   0.00000   0.00000   0.00000   0.00000
   5        2PZ        -0.00012   0.00255   0.21177   0.00837   0.00000
   6        3S         -0.00356   0.00453   0.10220  -0.38759   0.00000
   7        3PX         0.00000   0.00000   0.00000   0.00000   0.18952
   8        3PY         0.00000   0.00000   0.00000   0.00000   0.00000
   9        3PZ        -0.00211   0.00081   0.00903   0.01270   0.00000
  10        4XX         0.00029  -0.00766  -0.01120  -0.00186   0.00000
  11        4YY         0.00030  -0.00796  -0.01972   0.01280   0.00000
  12        4ZZ        -0.00091  -0.00641   0.03324   0.01069   0.00000
  13        4XY         0.00000   0.00000   0.00000   0.00000   0.00000
  14        4XZ         0.00000   0.00000   0.00000   0.00000   0.04004
  15        4YZ         0.00000   0.00000   0.00000   0.00000   0.00000
  16 2   O  1S          0.99297  -0.00003  -0.18059  -0.14395   0.00000
  17        2S          0.02589   0.00054   0.40705   0.32494   0.00000
  18        2PX         0.00000   0.00000   0.00000   0.00000   0.52855
  19        2PY         0.00000   0.00000   0.00000   0.00000   0.00000
  20        2PZ        -0.00147   0.00030  -0.19683   0.34279   0.00000
  21        3S          0.01190  -0.00293   0.31781   0.49326   0.00000
  22        3PX         0.00000   0.00000   0.00000   0.00000   0.31245
  23        3PY         0.00000   0.00000   0.00000   0.00000   0.00000
  24        3PZ        -0.00154   0.00179  -0.06689   0.14993   0.00000
  25        4XX        -0.00765   0.00048  -0.00371   0.00578   0.00000
  26        4YY        -0.00776   0.00050  -0.01229  -0.00315   0.00000
  27        4ZZ        -0.00692  -0.00111   0.02386  -0.03377   0.00000
  28        4XY         0.00000   0.00000   0.00000   0.00000   0.00000
  29        4XZ         0.00000   0.00000   0.00000   0.00000  -0.03816
  30        4YZ         0.00000   0.00000   0.00000   0.00000   0.00000
                           6         7         8         9        10
                        (PI)--O   (SG)--O   (PI)--V   (PI)--V   (SG)--V
     EIGENVALUES --    -0.45793  -0.45792  -0.08865  -0.04597   0.32974
   1 1   N  1S          0.00000  -0.11090   0.00000   0.00000  -0.08144
   2        2S          0.00000   0.21720   0.00000   0.00000   0.09106
   3        2PX         0.00000   0.00000   0.56282   0.00000   0.00000
   4        2PY         0.35041   0.00000   0.00000   0.55344   0.00000
   5        2PZ         0.00000  -0.46621   0.00000   0.00000   0.30994
   6        3S          0.00000   0.50022   0.00000   0.00000   2.13793
   7        3PX         0.00000   0.00000   0.51729   0.00000   0.00000
   8        3PY         0.18761   0.00000   0.00000   0.54215   0.00000
   9        3PZ         0.00000  -0.17447   0.00000   0.00000   1.91549
  10        4XX         0.00000   0.00858   0.00000   0.00000  -0.00574
  11        4YY         0.00000  -0.00506   0.00000   0.00000  -0.02022
  12        4ZZ         0.00000  -0.04067   0.00000   0.00000  -0.00587
  13        4XY         0.00000   0.00000   0.00000   0.00000   0.00000
  14        4XZ         0.00000   0.00000  -0.00596   0.00000   0.00000
  15        4YZ         0.04025   0.00000   0.00000  -0.00426   0.00000
  16 2   O  1S          0.00000  -0.02190   0.00000   0.00000   0.11075
  17        2S          0.00000   0.02125   0.00000   0.00000  -0.27580
  18        2PX         0.00000   0.00000  -0.45625   0.00000   0.00000
  19        2PY         0.53086   0.00000   0.00000  -0.44244   0.00000
  20        2PZ         0.00000   0.39869   0.00000   0.00000   0.30469
  21        3S          0.00000   0.13645   0.00000   0.00000  -2.13668
  22        3PX         0.00000   0.00000  -0.41952   0.00000   0.00000
  23        3PY         0.32482   0.00000   0.00000  -0.42524   0.00000
  24        3PZ         0.00000   0.20912   0.00000   0.00000   1.32159
  25        4XX         0.00000  -0.00084   0.00000   0.00000   0.00979
  26        4YY         0.00000  -0.00300   0.00000   0.00000   0.01354
  27        4ZZ         0.00000  -0.01684   0.00000   0.00000  -0.05854
  28        4XY         0.00000   0.00000   0.00000   0.00000   0.00000
  29        4XZ         0.00000   0.00000  -0.01170   0.00000   0.00000
  30        4YZ        -0.03881   0.00000   0.00000  -0.01284   0.00000
                          11        12        13        14        15
                        (SG)--V   (PI)--V   (SG)--V   (PI)--V   (SG)--V
     EIGENVALUES --     0.63907   0.64602   0.67318   0.67547   0.79868
   1 1   N  1S          0.03362   0.00000   0.00953   0.00000   0.04094
   2        2S         -0.99860   0.00000   0.57606   0.00000   0.41445
   3        2PX         0.00000  -0.90736   0.00000   0.00000   0.00000
   4        2PY         0.00000   0.00000   0.00000  -0.91589   0.00000
   5        2PZ        -0.43125   0.00000  -0.82850   0.00000   0.09373
   6        3S          1.57566   0.00000  -0.67641   0.00000  -0.15113
   7        3PX         0.00000   1.08812   0.00000   0.00000   0.00000
   8        3PY         0.00000   0.00000   0.00000   1.07419   0.00000
   9        3PZ         0.70142   0.00000   1.02478   0.00000  -0.06001
  10        4XX        -0.20510   0.00000   0.12080   0.00000   0.01297
  11        4YY        -0.19590   0.00000   0.11640   0.00000   0.02236
  12        4ZZ        -0.06678   0.00000   0.25319   0.00000   0.31497
  13        4XY         0.00000   0.00000   0.00000   0.00000   0.00000
  14        4XZ         0.00000  -0.04820   0.00000   0.00000   0.00000
  15        4YZ         0.00000   0.00000   0.00000  -0.04961   0.00000
  16 2   O  1S         -0.03630   0.00000  -0.02131   0.00000  -0.00140
  17        2S         -0.28517   0.00000   0.28711   0.00000  -0.43803
  18        2PX         0.00000  -0.21204   0.00000   0.00000   0.00000
  19        2PY         0.00000   0.00000   0.00000  -0.21646   0.00000
  20        2PZ        -0.38900   0.00000  -0.11378   0.00000  -0.70150
  21        3S         -0.02960   0.00000  -0.75418   0.00000   0.63727
  22        3PX         0.00000   0.01347   0.00000   0.00000   0.00000
  23        3PY         0.00000   0.00000   0.00000   0.02547   0.00000
  24        3PZ         0.15864   0.00000   0.03041   0.00000   1.19042
  25        4XX        -0.04161   0.00000   0.10717   0.00000  -0.17618
  26        4YY        -0.04932   0.00000   0.10214   0.00000  -0.16867
  27        4ZZ        -0.34266   0.00000  -0.06631   0.00000  -0.21712
  28        4XY         0.00000   0.00000   0.00000   0.00000   0.00000
  29        4XZ         0.00000   0.09498   0.00000   0.00000   0.00000
  30        4YZ         0.00000   0.00000   0.00000   0.09886   0.00000
                          16        17        18        19        20
                        (PI)--V   (PI)--V   (SG)--V  (DLTA)--  (DLTA)--
     EIGENVALUES --     0.89404   0.91651   1.33614   1.50495   1.50498
   1 1   N  1S          0.00000   0.00000  -0.00154   0.00000   0.00542
   2        2S          0.00000   0.00000   0.55924   0.00000  -0.01824
   3        2PX         0.22304   0.00000   0.00000   0.00000   0.00000
   4        2PY         0.00000   0.23392   0.00000   0.00000   0.00000
   5        2PZ         0.00000   0.00000  -0.00382   0.00000   0.00704
   6        3S          0.00000   0.00000  -4.23054   0.00000   0.07687
   7        3PX        -0.67878   0.00000   0.00000   0.00000   0.00000
   8        3PY         0.00000  -0.68342   0.00000   0.00000   0.00000
   9        3PZ         0.00000   0.00000  -2.36398   0.00000   0.03666
  10        4XX         0.00000   0.00000   0.14332   0.00000   0.60236
  11        4YY         0.00000   0.00000   0.11852   0.00000  -0.57899
  12        4ZZ         0.00000   0.00000  -0.10616   0.00000  -0.00675
  13        4XY         0.00000   0.00000   0.00000   0.68224   0.00000
  14        4XZ        -0.05293   0.00000   0.00000   0.00000   0.00000
  15        4YZ         0.00000  -0.05611   0.00000   0.00000   0.00000
  16 2   O  1S          0.00000   0.00000  -0.09409   0.00000   0.00421
  17        2S          0.00000   0.00000  -1.70306   0.00000   0.04365
  18        2PX        -0.89588   0.00000   0.00000   0.00000   0.00000
  19        2PY         0.00000  -0.89960   0.00000   0.00000   0.00000
  20        2PZ         0.00000   0.00000   0.34387   0.00000  -0.02449
  21        3S          0.00000   0.00000   6.01628   0.00000  -0.13871
  22        3PX         1.29478   0.00000   0.00000   0.00000   0.00000
  23        3PY         0.00000   1.29057   0.00000   0.00000   0.00000
  24        3PZ         0.00000   0.00000  -2.41909   0.00000   0.06827
  25        4XX         0.00000   0.00000  -0.36272   0.00000   0.56852
  26        4YY         0.00000   0.00000  -0.39324   0.00000  -0.53513
  27        4ZZ         0.00000   0.00000  -0.50330   0.00000   0.00798
  28        4XY         0.00000   0.00000   0.00000   0.63773   0.00000
  29        4XZ         0.02307   0.00000   0.00000   0.00000   0.00000
  30        4YZ         0.00000   0.02271   0.00000   0.00000   0.00000
                          21        22        23        24        25
                        (PI)--V   (PI)--V  (DLTA)--  (DLTA)--   (SG)--V
     EIGENVALUES --     1.51152   1.54244   1.94897   1.94906   2.39702
   1 1   N  1S          0.00000   0.00000  -0.00572   0.00000  -0.10400
   2        2S          0.00000   0.00000   0.01615   0.00000  -0.09579
   3        2PX        -0.24242   0.00000   0.00000   0.00000   0.00000
   4        2PY         0.00000  -0.24768   0.00000   0.00000   0.00000
   5        2PZ         0.00000   0.00000   0.01102   0.00000   0.02325
   6        3S          0.00000   0.00000   0.07910   0.00000   1.06392
   7        3PX         0.07272   0.00000   0.00000   0.00000   0.00000
   8        3PY         0.00000   0.07035   0.00000   0.00000   0.00000
   9        3PZ         0.00000   0.00000   0.04752   0.00000   0.78476
  10        4XX         0.00000   0.00000  -0.66742   0.00000  -0.76342
  11        4YY         0.00000   0.00000   0.62364   0.00000  -0.81009
  12        4ZZ         0.00000   0.00000   0.02228   0.00000   0.98350
  13        4XY         0.00000   0.00000   0.00000  -0.74606   0.00000
  14        4XZ         0.61522   0.00000   0.00000   0.00000   0.00000
  15        4YZ         0.00000   0.60966   0.00000   0.00000   0.00000
  16 2   O  1S          0.00000   0.00000   0.00444   0.00000  -0.04035
  17        2S          0.00000   0.00000  -0.00045   0.00000  -0.42117
  18        2PX        -0.18461   0.00000   0.00000   0.00000   0.00000
  19        2PY         0.00000  -0.18791   0.00000   0.00000   0.00000
  20        2PZ         0.00000   0.00000   0.01643   0.00000   0.63507
  21        3S          0.00000   0.00000  -0.09585   0.00000  -0.28740
  22        3PX        -0.03751   0.00000   0.00000   0.00000   0.00000
  23        3PY         0.00000  -0.03051   0.00000   0.00000   0.00000
  24        3PZ         0.00000   0.00000   0.03505   0.00000  -0.05235
  25        4XX         0.00000   0.00000   0.68817   0.00000  -0.32769
  26        4YY         0.00000   0.00000  -0.67072   0.00000  -0.31828
  27        4ZZ         0.00000   0.00000  -0.00108   0.00000  -0.02132
  28        4XY         0.00000   0.00000   0.00000   0.78446   0.00000
  29        4XZ        -0.58495   0.00000   0.00000   0.00000   0.00000
  30        4YZ         0.00000  -0.58962   0.00000   0.00000   0.00000
                          26        27        28        29        30
                        (PI)--V   (PI)--V   (SG)--V   (SG)--V   (SG)--V
     EIGENVALUES --     2.56965   2.60084   2.80803   3.29631   3.57241
   1 1   N  1S          0.00000   0.00000  -0.02871  -0.36077   0.18026
   2        2S          0.00000   0.00000  -0.73800   1.33236  -0.40531
   3        2PX         0.18244   0.00000   0.00000   0.00000   0.00000
   4        2PY         0.00000   0.18298   0.00000   0.00000   0.00000
   5        2PZ         0.00000   0.00000  -1.10966  -0.21221   0.15902
   6        3S          0.00000   0.00000  -2.23163   0.51494  -2.93916
   7        3PX         0.44075   0.00000   0.00000   0.00000   0.00000
   8        3PY         0.00000   0.43908   0.00000   0.00000   0.00000
   9        3PZ         0.00000   0.00000  -1.34081  -0.46945  -1.25103
  10        4XX         0.00000   0.00000   0.21912  -1.06379   0.63498
  11        4YY         0.00000   0.00000   0.22602  -1.06789   0.64206
  12        4ZZ         0.00000   0.00000  -0.86281  -1.56168   0.61056
  13        4XY         0.00000   0.00000   0.00000   0.00000   0.00000
  14        4XZ         1.05862   0.00000   0.00000   0.00000   0.00000
  15        4YZ         0.00000   1.06161   0.00000   0.00000   0.00000
  16 2   O  1S          0.00000   0.00000  -0.03410  -0.16958  -0.46953
  17        2S          0.00000   0.00000  -0.67426   0.30481  -0.11991
  18        2PX        -0.04547   0.00000   0.00000   0.00000   0.00000
  19        2PY         0.00000  -0.04719   0.00000   0.00000   0.00000
  20        2PZ         0.00000   0.00000  -0.33707  -0.27982   0.28629
  21        3S          0.00000   0.00000   3.27353   1.65902   5.26829
  22        3PX        -0.54578   0.00000   0.00000   0.00000   0.00000
  23        3PY         0.00000  -0.54410   0.00000   0.00000   0.00000
  24        3PZ         0.00000   0.00000  -2.01256  -0.58410  -1.24851
  25        4XX         0.00000   0.00000  -0.64065  -0.61071  -1.61786
  26        4YY         0.00000   0.00000  -0.65408  -0.61233  -1.62616
  27        4ZZ         0.00000   0.00000   1.57052  -0.23067  -1.40176
  28        4XY         0.00000   0.00000   0.00000   0.00000   0.00000
  29        4XZ         1.06369   0.00000   0.00000   0.00000   0.00000
  30        4YZ         0.00000   1.06073   0.00000   0.00000   0.00000
     ALPHA DENSITY MATRIX.
                           1         2         3         4         5
   1 1   N  1S          1.03761
   2        2S         -0.08169   0.26401
   3        2PX         0.00000   0.00000   0.14606
   4        2PY         0.00000   0.00000   0.00000   0.51280
   5        2PZ         0.02849  -0.04864   0.00000   0.00000   0.26441
   6        3S         -0.12407   0.28531   0.00000   0.00000  -0.21277
   7        3PX         0.00000   0.00000   0.07368   0.00000   0.00000
   8        3PY         0.00000   0.00000   0.00000   0.34476   0.00000
   9        3PZ         0.01726  -0.03358   0.00000   0.00000   0.07760
  10        4XX        -0.00629  -0.00510   0.00000   0.00000  -0.00457
  11        4YY        -0.00752  -0.00149   0.00000   0.00000  -0.00716
  12        4ZZ        -0.00287  -0.00966   0.00000   0.00000   0.02777
  13        4XY         0.00000   0.00000   0.00000   0.00000   0.00000
  14        4XZ         0.00000   0.00000   0.01516   0.00000   0.00000
  15        4YZ         0.00000   0.00000   0.00000   0.00942   0.00000
  16 2   O  1S          0.00237  -0.00032   0.00000   0.00000  -0.02956
  17        2S         -0.00264  -0.00152   0.00000   0.00000   0.07743
  18        2PX         0.00000   0.00000   0.20042   0.00000   0.00000
  19        2PY         0.00000   0.00000   0.00000  -0.07140   0.00000
  20        2PZ         0.03213  -0.08659   0.00000   0.00000  -0.22852
  21        3S          0.02382  -0.07372   0.00000   0.00000   0.01376
  22        3PX         0.00000   0.00000   0.11598   0.00000   0.00000
  23        3PY         0.00000   0.00000   0.00000  -0.11800   0.00000
  24        3PZ         0.00689  -0.01898   0.00000   0.00000  -0.11364
  25        4XX         0.00136  -0.00188   0.00000   0.00000  -0.00136
  26        4YY         0.00181  -0.00310   0.00000   0.00000  -0.00201
  27        4ZZ        -0.00762   0.01568   0.00000   0.00000   0.01133
  28        4XY         0.00000   0.00000   0.00000   0.00000   0.00000
  29        4XZ         0.00000   0.00000  -0.01401   0.00000   0.00000
  30        4YZ         0.00000   0.00000   0.00000  -0.01815   0.00000
                           6         7         8         9        10
   6        3S          0.41196
   7        3PX         0.00000   0.03717
   8        3PY         0.00000   0.00000   0.24243
   9        3PZ        -0.07902   0.00000   0.00000   0.02615
  10        4XX        -0.00160   0.00000   0.00000  -0.00069   0.00030
  11        4YY         0.00358   0.00000   0.00000  -0.00162   0.00028
  12        4ZZ        -0.02736   0.00000   0.00000   0.00774  -0.00041
  13        4XY         0.00000   0.00000   0.00000   0.00000   0.00000
  14        4XZ         0.00000   0.00765   0.00000   0.00000   0.00000
  15        4YZ         0.00000   0.00000   0.00290   0.00000   0.00000
  16 2   O  1S          0.02479   0.00000   0.00000  -0.00055   0.00214
  17        2S         -0.07478   0.00000   0.00000  -0.00049  -0.00422
  18        2PX         0.00000   0.10110   0.00000   0.00000   0.00000
  19        2PY         0.00000   0.00000  -0.12152   0.00000   0.00000
  20        2PZ         0.04819   0.00000   0.00000  -0.06715   0.00562
  21        3S         -0.10845   0.00000   0.00000  -0.01611  -0.00164
  22        3PX         0.00000   0.05851   0.00000   0.00000   0.00000
  23        3PY         0.00000   0.00000  -0.12683   0.00000   0.00000
  24        3PZ         0.04694   0.00000   0.00000  -0.03550   0.00221
  25        4XX        -0.00081   0.00000   0.00000  -0.00009   0.00008
  26        4YY        -0.00166   0.00000   0.00000  -0.00026   0.00011
  27        4ZZ         0.00900   0.00000   0.00000   0.00274  -0.00050
  28        4XY         0.00000   0.00000   0.00000   0.00000   0.00000
  29        4XZ         0.00000  -0.00707   0.00000   0.00000   0.00000
  30        4YZ         0.00000   0.00000  -0.01018   0.00000   0.00000
                          11        12        13        14        15
  11        4YY         0.00033
  12        4ZZ        -0.00076   0.00333
  13        4XY         0.00000   0.00000   0.00000
  14        4XZ         0.00000   0.00000   0.00000   0.00157
  15        4YZ         0.00000   0.00000   0.00000   0.00000   0.00128
  16 2   O  1S          0.00263  -0.00770   0.00000   0.00000   0.00000
  17        2S         -0.00554   0.01648   0.00000   0.00000   0.00000
  18        2PX         0.00000   0.00000   0.00000   0.02081   0.00000
  19        2PY         0.00000   0.00000   0.00000   0.00000   0.02242
  20        2PZ         0.00597  -0.01802   0.00000   0.00000   0.00000
  21        3S         -0.00346   0.01253   0.00000   0.00000   0.00000
  22        3PX         0.00000   0.00000   0.00000   0.01204   0.00000
  23        3PY         0.00000   0.00000   0.00000   0.00000   0.01317
  24        3PZ         0.00268  -0.00927   0.00000   0.00000   0.00000
  25        4XX         0.00007  -0.00015   0.00000   0.00000   0.00000
  26        4YY         0.00009  -0.00017   0.00000   0.00000   0.00000
  27        4ZZ        -0.00036   0.00061   0.00000   0.00000   0.00000
  28        4XY         0.00000   0.00000   0.00000   0.00000   0.00000
  29        4XZ         0.00000   0.00000   0.00000  -0.00145   0.00000
  30        4YZ         0.00000   0.00000   0.00000   0.00000  -0.00098
                          16        17        18        19        20
  16 2   O  1S          1.04007
  17        2S         -0.09752   0.28222
  18        2PX         0.00000   0.00000   0.27503
  19        2PY         0.00000   0.00000   0.00000   0.51764
  20        2PZ        -0.02383   0.04155   0.00000   0.00000   0.31397
  21        3S         -0.11935   0.29795   0.00000   0.00000   0.15643
  22        3PX         0.00000   0.00000   0.15915   0.00000   0.00000
  23        3PY         0.00000   0.00000   0.00000   0.34450   0.00000
  24        3PZ        -0.01482   0.02517   0.00000   0.00000   0.14543
  25        4XX        -0.00711  -0.00217   0.00000   0.00000   0.00163
  26        4YY        -0.00723  -0.00159   0.00000   0.00000   0.00324
  27        4ZZ        -0.00509  -0.00474   0.00000   0.00000  -0.02272
  28        4XY         0.00000   0.00000   0.00000   0.00000   0.00000
  29        4XZ         0.00000   0.00000  -0.01922   0.00000   0.00000
  30        4YZ         0.00000   0.00000   0.00000  -0.01140   0.00000
                          21        22        23        24        25
  21        3S          0.36275
  22        3PX         0.00000   0.09209
  23        3PY         0.00000   0.00000   0.23915
  24        3PZ         0.07487   0.00000   0.00000   0.06932
  25        4XX        -0.00125   0.00000   0.00000   0.00060   0.00010
  26        4YY         0.00006   0.00000   0.00000   0.00128   0.00011
  27        4ZZ        -0.01456   0.00000   0.00000  -0.00972  -0.00010
  28        4XY         0.00000   0.00000   0.00000   0.00000   0.00000
  29        4XZ         0.00000  -0.01112   0.00000   0.00000   0.00000
  30        4YZ         0.00000   0.00000  -0.00482   0.00000   0.00000
                          26        27        28        29        30
  26        4YY         0.00013
  27        4ZZ        -0.00025   0.00209
  28        4XY         0.00000   0.00000   0.00000
  29        4XZ         0.00000   0.00000   0.00000   0.00134
  30        4YZ         0.00000   0.00000   0.00000   0.00000   0.00102
     BETA DENSITY MATRIX.
                           1         2         3         4         5
   1 1   N  1S          1.03721
   2        2S         -0.07748   0.24403
   3        2PX         0.00000   0.00000   0.13561
   4        2PY         0.00000   0.00000   0.00000   0.12279
   5        2PZ         0.02934  -0.04808   0.00000   0.00000   0.26227
   6        3S         -0.12284   0.27324   0.00000   0.00000  -0.21480
   7        3PX         0.00000   0.00000   0.06979   0.00000   0.00000
   8        3PY         0.00000   0.00000   0.00000   0.06574   0.00000
   9        3PZ         0.02098  -0.03998   0.00000   0.00000   0.08336
  10        4XX        -0.00746  -0.00070   0.00000   0.00000  -0.00641
  11        4YY        -0.00296  -0.01112   0.00000   0.00000  -0.00173
  12        4ZZ        -0.00433  -0.00404   0.00000   0.00000   0.02607
  13        4XY         0.00000   0.00000   0.00000   0.00000   0.00000
  14        4XZ         0.00000   0.00000   0.01475   0.00000   0.00000
  15        4YZ         0.00000   0.00000   0.00000   0.01410   0.00000
  16 2   O  1S          0.00285  -0.00104   0.00000   0.00000  -0.02936
  17        2S         -0.00246  -0.00278   0.00000   0.00000   0.07901
  18        2PX         0.00000   0.00000   0.19464   0.00000   0.00000
  19        2PY         0.00000   0.00000   0.00000   0.18602   0.00000
  20        2PZ         0.03279  -0.08700   0.00000   0.00000  -0.22468
  21        3S          0.01806  -0.06117   0.00000   0.00000   0.00781
  22        3PX         0.00000   0.00000   0.11506   0.00000   0.00000
  23        3PY         0.00000   0.00000   0.00000   0.11382   0.00000
  24        3PZ         0.00977  -0.02537   0.00000   0.00000  -0.11040
  25        4XX         0.00191  -0.00320   0.00000   0.00000  -0.00034
  26        4YY         0.00187  -0.00277   0.00000   0.00000  -0.00123
  27        4ZZ        -0.00734   0.01459   0.00000   0.00000   0.01262
  28        4XY         0.00000   0.00000   0.00000   0.00000   0.00000
  29        4XZ         0.00000   0.00000  -0.01405   0.00000   0.00000
  30        4YZ         0.00000   0.00000   0.00000  -0.01360   0.00000
                           6         7         8         9        10
   6        3S          0.41093
   7        3PX         0.00000   0.03592
   8        3PY         0.00000   0.00000   0.03520
   9        3PZ        -0.09126   0.00000   0.00000   0.03069
  10        4XX         0.00384   0.00000   0.00000  -0.00163   0.00026
  11        4YY        -0.00954   0.00000   0.00000   0.00086   0.00021
  12        4ZZ        -0.02112   0.00000   0.00000   0.00753  -0.00069
  13        4XY         0.00000   0.00000   0.00000   0.00000   0.00000
  14        4XZ         0.00000   0.00759   0.00000   0.00000   0.00000
  15        4YZ         0.00000   0.00000   0.00755   0.00000   0.00000
  16 2   O  1S          0.02285   0.00000   0.00000  -0.00173   0.00239
  17        2S         -0.07380   0.00000   0.00000   0.00404  -0.00498
  18        2PX         0.00000   0.10017   0.00000   0.00000   0.00000
  19        2PY         0.00000   0.00000   0.09959   0.00000   0.00000
  20        2PZ         0.04646   0.00000   0.00000  -0.06698   0.00498
  21        3S         -0.09051   0.00000   0.00000  -0.01470  -0.00328
  22        3PX         0.00000   0.05922   0.00000   0.00000   0.00000
  23        3PY         0.00000   0.00000   0.06094   0.00000   0.00000
  24        3PZ         0.03967   0.00000   0.00000  -0.03518   0.00225
  25        4XX        -0.00301   0.00000   0.00000   0.00020   0.00002
  26        4YY        -0.00150   0.00000   0.00000   0.00039   0.00011
  27        4ZZ         0.00713   0.00000   0.00000   0.00274  -0.00034
  28        4XY         0.00000   0.00000   0.00000   0.00000   0.00000
  29        4XZ         0.00000  -0.00723   0.00000   0.00000   0.00000
  30        4YZ         0.00000   0.00000  -0.00728   0.00000   0.00000
                          11        12        13        14        15
  11        4YY         0.00064
  12        4ZZ        -0.00026   0.00292
  13        4XY         0.00000   0.00000   0.00000
  14        4XZ         0.00000   0.00000   0.00000   0.00160
  15        4YZ         0.00000   0.00000   0.00000   0.00000   0.00162
  16 2   O  1S          0.00213  -0.00755   0.00000   0.00000   0.00000
  17        2S         -0.00397   0.01612   0.00000   0.00000   0.00000
  18        2PX         0.00000   0.00000   0.00000   0.02116   0.00000
  19        2PY         0.00000   0.00000   0.00000   0.00000   0.02137
  20        2PZ         0.00625  -0.01909   0.00000   0.00000   0.00000
  21        3S         -0.00062   0.01030   0.00000   0.00000   0.00000
  22        3PX         0.00000   0.00000   0.00000   0.01251   0.00000
  23        3PY         0.00000   0.00000   0.00000   0.00000   0.01307
  24        3PZ         0.00217  -0.00914   0.00000   0.00000   0.00000
  25        4XX         0.00015  -0.00002   0.00000   0.00000   0.00000
  26        4YY         0.00021  -0.00032   0.00000   0.00000   0.00000
  27        4ZZ        -0.00081   0.00113   0.00000   0.00000   0.00000
  28        4XY         0.00000   0.00000   0.00000   0.00000   0.00000
  29        4XZ         0.00000   0.00000   0.00000  -0.00153   0.00000
  30        4YZ         0.00000   0.00000   0.00000   0.00000  -0.00156
                          16        17        18        19        20
  16 2   O  1S          1.03979
  17        2S         -0.09504   0.27240
  18        2PX         0.00000   0.00000   0.27936
  19        2PY         0.00000   0.00000   0.00000   0.28181
  20        2PZ        -0.02399   0.03970   0.00000   0.00000   0.31520
  21        3S         -0.11956   0.29285   0.00000   0.00000   0.16091
  22        3PX         0.00000   0.00000   0.16514   0.00000   0.00000
  23        3PY         0.00000   0.00000   0.00000   0.17243   0.00000
  24        3PZ        -0.01561   0.02590   0.00000   0.00000   0.14794
  25        4XX        -0.00774   0.00015   0.00000   0.00000   0.00239
  26        4YY        -0.00497  -0.00629   0.00000   0.00000   0.00015
  27        4ZZ        -0.00595  -0.00180   0.00000   0.00000  -0.02298
  28        4XY         0.00000   0.00000   0.00000   0.00000   0.00000
  29        4XZ         0.00000   0.00000  -0.02017   0.00000   0.00000
  30        4YZ         0.00000   0.00000   0.00000  -0.02060   0.00000
                          21        22        23        24        25
  21        3S          0.36307
  22        3PX         0.00000   0.09762
  23        3PY         0.00000   0.00000   0.10551
  24        3PZ         0.08121   0.00000   0.00000   0.07069
  25        4XX         0.00146   0.00000   0.00000   0.00095   0.00011
  26        4YY        -0.00596   0.00000   0.00000  -0.00027   0.00009
  27        4ZZ        -0.01145   0.00000   0.00000  -0.01017  -0.00022
  28        4XY         0.00000   0.00000   0.00000   0.00000   0.00000
  29        4XZ         0.00000  -0.01192   0.00000   0.00000   0.00000
  30        4YZ         0.00000   0.00000  -0.01261   0.00000   0.00000
                          26        27        28        29        30
  26        4YY         0.00023
  27        4ZZ        -0.00008   0.00204
  28        4XY         0.00000   0.00000   0.00000
  29        4XZ         0.00000   0.00000   0.00000   0.00146
  30        4YZ         0.00000   0.00000   0.00000   0.00000   0.00151
    Full Mulliken population analysis:
                           1         2         3         4         5
   1 1   N  1S          2.07482
   2        2S         -0.03537   0.50804
   3        2PX         0.00000   0.00000   0.28167
   4        2PY         0.00000   0.00000   0.00000   0.63559
   5        2PZ         0.00000   0.00000   0.00000   0.00000   0.52668
   6        3S         -0.04244   0.43317   0.00000   0.00000   0.00000
   7        3PX         0.00000   0.00000   0.07450   0.00000   0.00000
   8        3PY         0.00000   0.00000   0.00000   0.21317   0.00000
   9        3PZ         0.00000   0.00000   0.00000   0.00000   0.08359
  10        4XX        -0.00069  -0.00369   0.00000   0.00000   0.00000
  11        4YY        -0.00053  -0.00802   0.00000   0.00000   0.00000
  12        4ZZ        -0.00036  -0.00871   0.00000   0.00000   0.00000
  13        4XY         0.00000   0.00000   0.00000   0.00000   0.00000
  14        4XZ         0.00000   0.00000   0.00000   0.00000   0.00000
  15        4YZ         0.00000   0.00000   0.00000   0.00000   0.00000
  16 2   O  1S          0.00000  -0.00002   0.00000   0.00000  -0.00175
  17        2S         -0.00004  -0.00062   0.00000   0.00000   0.03521
  18        2PX         0.00000   0.00000   0.02999   0.00000   0.00000
  19        2PY         0.00000   0.00000   0.00000   0.00870   0.00000
  20        2PZ        -0.00127   0.03452   0.00000   0.00000   0.12286
  21        3S          0.00246  -0.04482   0.00000   0.00000   0.00564
  22        3PX         0.00000   0.00000   0.05310   0.00000   0.00000
  23        3PY         0.00000   0.00000   0.00000  -0.00096   0.00000
  24        3PZ        -0.00214   0.02433   0.00000   0.00000   0.04985
  25        4XX         0.00001  -0.00051   0.00000   0.00000  -0.00023
  26        4YY         0.00001  -0.00059   0.00000   0.00000  -0.00044
  27        4ZZ        -0.00144   0.01298   0.00000   0.00000   0.01038
  28        4XY         0.00000   0.00000   0.00000   0.00000   0.00000
  29        4XZ         0.00000   0.00000   0.00702   0.00000   0.00000
  30        4YZ         0.00000   0.00000   0.00000   0.00795   0.00000
                           6         7         8         9        10
   6        3S          0.82289
   7        3PX         0.00000   0.07309
   8        3PY         0.00000   0.00000   0.27763
   9        3PZ         0.00000   0.00000   0.00000   0.05684
  10        4XX         0.00150   0.00000   0.00000   0.00000   0.00056
  11        4YY        -0.00400   0.00000   0.00000   0.00000   0.00017
  12        4ZZ        -0.03249   0.00000   0.00000   0.00000  -0.00037
  13        4XY         0.00000   0.00000   0.00000   0.00000   0.00000
  14        4XZ         0.00000   0.00000   0.00000   0.00000   0.00000
  15        4YZ         0.00000   0.00000   0.00000   0.00000   0.00000
  16 2   O  1S          0.00249   0.00000   0.00000  -0.00023   0.00000
  17        2S         -0.04441   0.00000   0.00000   0.00175  -0.00061
  18        2PX         0.00000   0.03528   0.00000   0.00000   0.00000
  19        2PY         0.00000   0.00000  -0.00384   0.00000   0.00000
  20        2PZ        -0.01673   0.00000   0.00000   0.01664  -0.00092
  21        3S         -0.11136   0.00000   0.00000  -0.01948  -0.00131
  22        3PX         0.00000   0.06541   0.00000   0.00000   0.00000
  23        3PY         0.00000   0.00000  -0.03661   0.00000   0.00000
  24        3PZ        -0.04852   0.00000   0.00000   0.00545  -0.00202
  25        4XX        -0.00115   0.00000   0.00000   0.00005   0.00001
  26        4YY        -0.00095   0.00000   0.00000   0.00006   0.00001
  27        4ZZ         0.00690   0.00000   0.00000   0.00235  -0.00020
  28        4XY         0.00000   0.00000   0.00000   0.00000   0.00000
  29        4XZ         0.00000   0.00314   0.00000   0.00000   0.00000
  30        4YZ         0.00000   0.00000   0.00384   0.00000   0.00000
                          11        12        13        14        15
  11        4YY         0.00097
  12        4ZZ        -0.00034   0.00625
  13        4XY         0.00000   0.00000   0.00000
  14        4XZ         0.00000   0.00000   0.00000   0.00318
  15        4YZ         0.00000   0.00000   0.00000   0.00000   0.00290
  16 2   O  1S          0.00001  -0.00119   0.00000   0.00000   0.00000
  17        2S         -0.00063   0.01292   0.00000   0.00000   0.00000
  18        2PX         0.00000   0.00000   0.00000   0.00877   0.00000
  19        2PY         0.00000   0.00000   0.00000   0.00000   0.00915
  20        2PZ        -0.00106   0.01456   0.00000   0.00000   0.00000
  21        3S         -0.00108   0.01002   0.00000   0.00000   0.00000
  22        3PX         0.00000   0.00000   0.00000   0.00648   0.00000
  23        3PY         0.00000   0.00000   0.00000   0.00000   0.00693
  24        3PZ        -0.00219   0.00813   0.00000   0.00000   0.00000
  25        4XX         0.00001  -0.00004   0.00000   0.00000   0.00000
  26        4YY         0.00004  -0.00012   0.00000   0.00000   0.00000
  27        4ZZ        -0.00028   0.00086   0.00000   0.00000   0.00000
  28        4XY         0.00000   0.00000   0.00000   0.00000   0.00000
  29        4XZ         0.00000   0.00000   0.00000   0.00124   0.00000
  30        4YZ         0.00000   0.00000   0.00000   0.00000   0.00106
                          16        17        18        19        20
  16 2   O  1S          2.07986
  17        2S         -0.04500   0.55463
  18        2PX         0.00000   0.00000   0.55439
  19        2PY         0.00000   0.00000   0.00000   0.79945
  20        2PZ         0.00000   0.00000   0.00000   0.00000   0.62917
  21        3S         -0.03996   0.45116   0.00000   0.00000   0.00000
  22        3PX         0.00000   0.00000   0.16264   0.00000   0.00000
  23        3PY         0.00000   0.00000   0.00000   0.25925   0.00000
  24        3PZ         0.00000   0.00000   0.00000   0.00000   0.14713
  25        4XX        -0.00050  -0.00111   0.00000   0.00000   0.00000
  26        4YY        -0.00041  -0.00431   0.00000   0.00000   0.00000
  27        4ZZ        -0.00037  -0.00358   0.00000   0.00000   0.00000
  28        4XY         0.00000   0.00000   0.00000   0.00000   0.00000
  29        4XZ         0.00000   0.00000   0.00000   0.00000   0.00000
  30        4YZ         0.00000   0.00000   0.00000   0.00000   0.00000
                          21        22        23        24        25
  21        3S          0.72583
  22        3PX         0.00000   0.18972
  23        3PY         0.00000   0.00000   0.34465
  24        3PZ         0.00000   0.00000   0.00000   0.14001
  25        4XX         0.00015   0.00000   0.00000   0.00000   0.00020
  26        4YY        -0.00413   0.00000   0.00000   0.00000   0.00007
  27        4ZZ        -0.01819   0.00000   0.00000   0.00000  -0.00011
  28        4XY         0.00000   0.00000   0.00000   0.00000   0.00000
  29        4XZ         0.00000   0.00000   0.00000   0.00000   0.00000
  30        4YZ         0.00000   0.00000   0.00000   0.00000   0.00000
                          26        27        28        29        30
  26        4YY         0.00036
  27        4ZZ        -0.00011   0.00413
  28        4XY         0.00000   0.00000   0.00000
  29        4XZ         0.00000   0.00000   0.00000   0.00280
  30        4YZ         0.00000   0.00000   0.00000   0.00000   0.00253
     Gross orbital populations:
                         TOTAL     ALPHA     BETA      SPIN
   1 1   N  1S          1.99302   0.99643   0.99659  -0.00015
   2        2S          0.91068   0.46592   0.44476   0.02115
   3        2PX         0.44628   0.22969   0.21659   0.01311
   4        2PY         0.86445   0.66383   0.20061   0.46322
   5        2PZ         0.83178   0.41655   0.41524   0.00131
   6        3S          0.96491   0.48143   0.48348  -0.00205
   7        3PX         0.25142   0.12721   0.12421   0.00300
   8        3PY         0.45418   0.33193   0.12225   0.20967
   9        3PZ         0.14703   0.06805   0.07898  -0.01093
  10        4XX        -0.00754  -0.00667  -0.00086  -0.00581
  11        4YY        -0.01693  -0.00184  -0.01509   0.01325
  12        4ZZ         0.00913   0.00115   0.00798  -0.00683
  13        4XY         0.00000   0.00000   0.00000   0.00000
  14        4XZ         0.01967   0.00971   0.00996  -0.00026
  15        4YZ         0.02004   0.00985   0.01019  -0.00033
  16 2   O  1S          1.99293   0.99643   0.99650  -0.00008
  17        2S          0.95538   0.48280   0.47258   0.01022
  18        2PX         0.79106   0.39213   0.39894  -0.00681
  19        2PY         1.07270   0.66837   0.40433   0.26404
  20        2PZ         0.94491   0.47133   0.47358  -0.00225
  21        3S          0.95495   0.47307   0.48188  -0.00881
  22        3PX         0.47735   0.23425   0.24310  -0.00884
  23        3PY         0.57326   0.31780   0.25546   0.06235
  24        3PZ         0.32005   0.15540   0.16465  -0.00925
  25        4XX        -0.00313  -0.00288  -0.00026  -0.00262
  26        4YY        -0.01050  -0.00221  -0.00829   0.00608
  27        4ZZ         0.01333   0.00505   0.00828  -0.00322
  28        4XY         0.00000   0.00000   0.00000   0.00000
  29        4XZ         0.01421   0.00701   0.00720  -0.00019
  30        4YZ         0.01537   0.00821   0.00716   0.00105
          Condensed to atoms (all electrons):
              1          2
     1  N    6.609274   0.278858
     2  O    0.278858   7.833010
 Mulliken atomic charges:
              1
     1  N    0.111868
     2  O   -0.111868
 Sum of Mulliken charges=   0.00000
 Atomic charges with hydrogens summed into heavy atoms:
              1
     1  N    0.111868
     2  O   -0.111868
 Sum of Mulliken charges=   0.00000
          Atomic-Atomic Spin Densities.
              1          2
     1  N    0.933139  -0.234803
     2  O   -0.234803   0.536467
 Mulliken atomic spin densities:
              1
     1  N    0.698336
     2  O    0.301664
 Sum of Mulliken spin densities=   1.00000
 APT atomic charges:
              1
     1  N    0.152952
     2  O   -0.152952
 Sum of APT charges=   0.00000
 APT Atomic charges with hydrogens summed into heavy atoms:
              1
     1  N    0.152952
     2  O   -0.152952
 Sum of APT charges=   0.00000
 Electronic spatial extent (au):  <R**2>=    41.0003
 Charge=     0.0000 electrons
 Dipole moment (field-independent basis, Debye):
    X=     0.0000    Y=     0.0000    Z=     0.0887  Tot=     0.0887
 Quadrupole moment (field-independent basis, Debye-Ang):
   XX=    -9.4409   YY=   -10.5022   ZZ=   -11.1281
   XY=     0.0000   XZ=     0.0000   YZ=     0.0000
 Traceless Quadrupole moment (field-independent basis, Debye-Ang):
   XX=     0.9161   YY=    -0.1451   ZZ=    -0.7710
   XY=     0.0000   XZ=     0.0000   YZ=     0.0000
 Octapole moment (field-independent basis, Debye-Ang**2):
  XXX=     0.0000  YYY=     0.0000  ZZZ=     2.5515  XYY=     0.0000
  XXY=     0.0000  XXZ=     0.4638  XZZ=     0.0000  YZZ=     0.0000
  YYZ=     0.8439  XYZ=     0.0000
 Hexadecapole moment (field-independent basis, Debye-Ang**3):
 XXXX=    -6.6675 YYYY=    -7.9181 ZZZZ=   -29.6880 XXXY=     0.0000
 XXXZ=     0.0000 YYYX=     0.0000 YYYZ=     0.0000 ZZZX=     0.0000
 ZZZY=     0.0000 XXYY=    -2.4309 XXZZ=    -5.7106 YYZZ=    -6.5589
 XXYZ=     0.0000 YYXZ=     0.0000 ZZXY=     0.0000
 N-N= 2.557500045167D+01 E-N=-3.563026983768D+02  KE= 1.287531636568D+02
 Symmetry A1   KE= 1.178715136837D+02
 Symmetry A2   KE= 1.968673800572D-35
 Symmetry B1   KE= 4.139865039196D+00
 Symmetry B2   KE= 6.741784933849D+00
 Orbital energies and kinetic energies (alpha):
                           1         2
   1 (SG)--O          -19.29240  29.02662
   2 (SG)--O          -14.47855  21.95851
   3 (SG)--O           -1.24220   2.81435
   4 (SG)--O           -0.68704   2.87214
   5 (PI)--O           -0.53135   2.13445
   6 (PI)--O           -0.50491   2.07356
   7 (SG)--O           -0.48206   2.30445
   8 (PI)--O           -0.21562   2.56075
   9 (PI)--V           -0.10501   2.42403
  10 (SG)--V            0.31492   2.29368
  11 (PI)--V            0.62321   2.41206
  12 (SG)--V            0.62357   2.61087
  13 (PI)--V            0.63635   2.50737
  14 (SG)--V            0.65995   2.68957
  15 (SG)--V            0.79163   2.54269
  16 (PI)--V            0.87990   3.19698
  17 (PI)--V            0.88925   3.28268
  18 (SG)--V            1.32498   2.61110
  19 (DLTA)--V          1.47232   2.60539
  20 (DLTA)--V          1.47448   2.60503
  21 (PI)--V            1.50763   2.89523
  22 (PI)--V            1.50770   2.90979
  23 (DLTA)--V          1.91011   3.06232
  24 (DLTA)--V          1.91236   3.06253
  25 (SG)--V            2.37568   4.43284
  26 (PI)--V            2.56197   3.82435
  27 (PI)--V            2.56380   3.82639
  28 (SG)--V            2.79698   5.17981
  29 (SG)--V            3.27024   8.91749
  30 (SG)--V            3.55477   9.90415
 Orbital energies and kinetic energies (beta):
                           1         2
   1 (SG)--O          -19.28232  29.03833
   2 (SG)--O          -14.46341  21.97842
   3 (SG)--O           -1.22038   2.79347
   4 (SG)--O           -0.65016   2.83462
   5 (PI)--O           -0.49474   2.06631
   6 (PI)--O           -0.45793   2.04658
   7 (SG)--O           -0.45792   2.25060
   8 (PI)--V           -0.08865   2.38324
   9 (PI)--V           -0.04597   2.31187
  10 (SG)--V            0.32974   2.21751
  11 (SG)--V            0.63907   2.74792
  12 (PI)--V            0.64602   2.53713
  13 (SG)--V            0.67318   2.63599
  14 (PI)--V            0.67547   2.58595
  15 (SG)--V            0.79868   2.57671
  16 (PI)--V            0.89404   3.29675
  17 (PI)--V            0.91651   3.33166
  18 (SG)--V            1.33614   2.62536
  19 (DLTA)--V          1.50495   2.60384
  20 (DLTA)--V          1.50498   2.60565
  21 (PI)--V            1.51152   2.91306
  22 (PI)--V            1.54244   2.91920
  23 (DLTA)--V          1.94897   3.06599
  24 (DLTA)--V          1.94906   3.06386
  25 (SG)--V            2.39702   4.41621
  26 (PI)--V            2.56965   3.82732
  27 (PI)--V            2.60084   3.82857
  28 (SG)--V            2.80803   5.18426
  29 (SG)--V            3.29631   8.95439
  30 (SG)--V            3.57241   9.90040
 Total kinetic energy from orbitals= 1.287531636568D+02
  Exact polarizability:   5.545   0.000   5.232   0.000   0.000  12.010
 Approx polarizability:   7.807   0.000   6.321   0.000   0.000  23.411
                          Isotropic Fermi Contact Couplings
        Atom                 a.u.       MegaHertz       Gauss      10(-4) cm-1
     1  N(14)              0.05600      18.09494       6.45673       6.03582
     2  O(17)              0.05226     -31.67885     -11.30380     -10.56693
 --------------------------------------------------------
       Center         ----  Spin Dipole Couplings  ----
                      3XX-RR        3YY-RR        3ZZ-RR
 --------------------------------------------------------
     1   Atom       -0.883837      1.796236     -0.912399
     2   Atom       -0.923407      1.715702     -0.792295
 --------------------------------------------------------
                        XY            XZ            YZ
 --------------------------------------------------------
     1   Atom        0.000000      0.000000      0.000000
     2   Atom        0.000000      0.000000      0.000000
 --------------------------------------------------------


 ---------------------------------------------------------------------------------
              Anisotropic Spin Dipole Couplings in Principal Axis System
 ---------------------------------------------------------------------------------

       Atom             a.u.   MegaHertz   Gauss  10(-4) cm-1        Axes

              Baa    -0.9124   -35.189   -12.556   -11.738  0.0000  0.0000  1.0000
     1 N(14)  Bbb    -0.8838   -34.088   -12.163   -11.370  1.0000  0.0000  0.0000
              Bcc     1.7962    69.277    24.720    23.108  0.0000  1.0000  0.0000
 
              Baa    -0.9234    66.817    23.842    22.288  1.0000  0.0000  0.0000
     2 O(17)  Bbb    -0.7923    57.330    20.457    19.123  0.0000  0.0000  1.0000
              Bcc     1.7157  -124.147   -44.299   -41.411  0.0000  1.0000  0.0000
 

 ---------------------------------------------------------------------------------


 *********************************** NBO 5.G ***********************************
             N A T U R A L   A T O M I C   O R B I T A L   A N D
          N A T U R A L   B O N D   O R B I T A L   A N A L Y S I S
 *******************************************************************************
  (c) Copyright 1996-2004 Board of Regents of the University of Wisconsin System
      on behalf of the Theoretical Chemistry Institute.  All Rights Reserved.

          Cite this program as:

          NBO 5.G.  E. D. Glendening, J. K. Badenhoop, A. E. Reed,
          J. E. Carpenter, J. A. Bohmann, C. M. Morales, and F. Weinhold
          (Theoretical Chemistry Institute, University of Wisconsin,
          Madison, WI, 2001); http://www.chem.wisc.edu/~nbo5

       /NRT    / : Natural Resonance Theory Analysis

 Analyzing the SCF density

 Job title: InChI=1/NO/c1-2                                                 

 Storage needed:        4704 in NPA,        3709 in NBO (     6291456 available)


 NATURAL POPULATIONS:  Natural atomic orbital occupancies 
                                                          
  NAO Atom No lang   Type(AO)    Occupancy      Spin      
 -------------------------------------------------------  
   1    N  1  s      Cor( 1s)     1.99988     0.00000
   2    N  1  s      Val( 2s)     1.71253     0.01074
   3    N  1  s      Ryd( 3s)     0.02089    -0.00015
   4    N  1  s      Ryd( 4s)     0.00003     0.00000
   5    N  1  px     Val( 2p)     0.68453     0.01490
   6    N  1  px     Ryd( 3p)     0.00003     0.00002
   7    N  1  py     Val( 2p)     1.31096     0.67496
   8    N  1  py     Ryd( 3p)     0.00711     0.00709
   9    N  1  pz     Val( 2p)     1.04591    -0.00725
  10    N  1  pz     Ryd( 3p)     0.00886    -0.00015
  11    N  1  dxy    Ryd( 3d)     0.00000     0.00000
  12    N  1  dxz    Ryd( 3d)     0.00350    -0.00005
  13    N  1  dyz    Ryd( 3d)     0.00311    -0.00048
  14    N  1  dx2y2  Ryd( 3d)     0.00018    -0.00013
  15    N  1  dz2    Ryd( 3d)     0.00380     0.00011

  16    O  2  s      Cor( 1s)     1.99987     0.00000
  17    O  2  s      Val( 2s)     1.74423     0.00474
  18    O  2  s      Ryd( 3s)     0.01050    -0.00018
  19    O  2  s      Ryd( 4s)     0.00002     0.00000
  20    O  2  px     Val( 2p)     1.30699    -0.01473
  21    O  2  px     Ryd( 3p)     0.00001    -0.00001
  22    O  2  py     Val( 2p)     1.67102     0.31606
  23    O  2  py     Ryd( 3p)     0.00339     0.00318
  24    O  2  pz     Val( 2p)     1.44411    -0.00758
  25    O  2  pz     Ryd( 3p)     0.00205    -0.00004
  26    O  2  dxy    Ryd( 3d)     0.00000     0.00000
  27    O  2  dxz    Ryd( 3d)     0.00494    -0.00014
  28    O  2  dyz    Ryd( 3d)     0.00440    -0.00080
  29    O  2  dx2y2  Ryd( 3d)     0.00006    -0.00005
  30    O  2  dz2    Ryd( 3d)     0.00710    -0.00007


 Summary of Natural Population Analysis:

                                     Natural Population                 Natural
             Natural    ---------------------------------------------    Spin
  Atom No    Charge        Core      Valence    Rydberg      Total      Density
 ------------------------------------------------------------------------------
    N  1    0.19868      1.99988     4.75393    0.04750     6.80132     0.69962
    O  2   -0.19868      1.99987     6.16635    0.03246     8.19868     0.30038
 ===============================================================================
 * Total *  0.00000      3.99975    10.92028    0.07997    15.00000     1.00000

                                 Natural Population      
 --------------------------------------------------------
   Core                       3.99975 ( 99.9938% of   4)
   Valence                   10.92028 ( 99.2753% of  11)
   Natural Minimal Basis     14.92003 ( 99.4669% of  15)
   Natural Rydberg Basis      0.07997 (  0.5331% of  15)
 --------------------------------------------------------

    Atom No         Natural Electron Configuration
 ----------------------------------------------------------------------------
      N  1      [core]2s( 1.71)2p( 3.04)3s( 0.02)3p( 0.02)3d( 0.01)
      O  2      [core]2s( 1.74)2p( 4.42)3s( 0.01)3p( 0.01)3d( 0.02)


 ***************************************************
 *******         Alpha spin orbitals         *******
 ***************************************************


 NATURAL POPULATIONS:  Natural atomic orbital occupancies 
                                                          
  NAO Atom No lang   Type(AO)    Occupancy      Energy    
 ---------------------------------------------------------
   1    N  1  s      Cor( 1s)     0.99994     -14.33591
   2    N  1  s      Val( 2s)     0.86164      -0.71740
   3    N  1  s      Ryd( 3s)     0.01037       0.86526
   4    N  1  s      Ryd( 4s)     0.00001       3.24745
   5    N  1  px     Val( 2p)     0.34972      -0.23207
   6    N  1  px     Ryd( 3p)     0.00003       0.65014
   7    N  1  py     Val( 2p)     0.99296      -0.32326
   8    N  1  py     Ryd( 3p)     0.00710       0.63810
   9    N  1  pz     Val( 2p)     0.51933      -0.14074
  10    N  1  pz     Ryd( 3p)     0.00436       0.65647
  11    N  1  dxy    Ryd( 3d)     0.00000       1.67106
  12    N  1  dxz    Ryd( 3d)     0.00172       2.08695
  13    N  1  dyz    Ryd( 3d)     0.00132       2.08410
  14    N  1  dx2y2  Ryd( 3d)     0.00002       1.67447
  15    N  1  dz2    Ryd( 3d)     0.00195       2.42688

  16    O  2  s      Cor( 1s)     0.99993     -19.09112
  17    O  2  s      Val( 2s)     0.87449      -0.99526
  18    O  2  s      Ryd( 3s)     0.00516       1.26462
  19    O  2  s      Ryd( 4s)     0.00001       3.14467
  20    O  2  px     Val( 2p)     0.64613      -0.35399
  21    O  2  px     Ryd( 3p)     0.00000       0.87820
  22    O  2  py     Val( 2p)     0.99354      -0.40741
  23    O  2  py     Ryd( 3p)     0.00328       0.87178
  24    O  2  pz     Val( 2p)     0.71827      -0.36628
  25    O  2  pz     Ryd( 3p)     0.00101       1.02957
  26    O  2  dxy    Ryd( 3d)     0.00000       1.71138
  27    O  2  dxz    Ryd( 3d)     0.00240       1.95795
[...]

          AO         9      10      11      12      13      14      15      16
      ---------- ------- ------- ------- ------- ------- ------- ------- -------
   1.  N 1 (s)    0.4127  0.0000  0.0000 -0.0495  0.0000  0.0000  0.0000 -0.0024
   2.  N 1 (s)   -1.0643  0.0000  0.0000  1.0865  0.0000  0.0000  0.0000  0.0355
   3.  N 1 (px)   0.0000 -0.8772  0.0000  0.0000  0.0000 -0.0041  0.0000  0.0000
   4.  N 1 (py)   0.0000  0.0000 -0.8850  0.0000  0.0000  0.0000 -0.0060  0.0000
   5.  N 1 (pz)   0.2700  0.0000  0.0000 -0.6866  0.0000  0.0000  0.0000  0.0085
   6.  N 1 (s)   -2.5037  0.0000  0.0000 -1.7725  0.0000  0.0000  0.0000 -0.0821
   7.  N 1 (px)   0.0000  1.2756  0.0000  0.0000  0.0000  0.2901  0.0000  0.0000
   8.  N 1 (py)   0.0000  0.0000  1.2715  0.0000  0.0000  0.0000  0.2891  0.0000
   9.  N 1 (pz)  -0.5313  0.0000  0.0000  0.3381  0.0000  0.0000  0.0000 -0.0701
  10.  N 1 (d1)   1.3630  0.0000  0.0000  0.0687  0.0000  0.0000  0.0000 -0.8741
  11.  N 1 (d4)   1.3630  0.0000  0.0000  0.0680  0.0000  0.0000  0.0000  0.8735
  12.  N 1 (d6)   1.5291  0.0000  0.0000  0.0274  0.0000  0.0000  0.0000 -0.0059
  13.  N 1 (d2)   0.0000  0.0000  0.0000  0.0000  1.0094  0.0000  0.0000  0.0000
  14.  N 1 (d3)   0.0000  0.0247  0.0000  0.0000  0.0000  1.1999  0.0000  0.0000
  15.  N 1 (d5)   0.0000  0.0000  0.0238  0.0000  0.0000  0.0000  1.1997  0.0000
  16.  O 2 (s)   -0.0567  0.0000  0.0000 -0.0426  0.0000  0.0000  0.0000 -0.0042
  17.  O 2 (s)   -0.3113  0.0000  0.0000 -0.1420  0.0000  0.0000  0.0000 -0.0044
  18.  O 2 (px)   0.0000 -0.0615  0.0000  0.0000  0.0000 -0.0891  0.0000  0.0000
  19.  O 2 (py)   0.0000  0.0000 -0.0603  0.0000  0.0000  0.0000 -0.0888  0.0000
  20.  O 2 (pz)   0.2701  0.0000  0.0000 -0.0290  0.0000  0.0000  0.0000  0.0005
  21.  O 2 (s)    1.3274  0.0000  0.0000  0.8944  0.0000  0.0000  0.0000  0.1041
  22.  O 2 (px)   0.0000 -0.3558  0.0000  0.0000  0.0000 -0.4416  0.0000  0.0000
  23.  O 2 (py)   0.0000  0.0000 -0.3549  0.0000  0.0000  0.0000 -0.4414  0.0000
  24.  O 2 (pz)  -0.1460  0.0000  0.0000 -0.4235  0.0000  0.0000  0.0000 -0.0354
  25.  O 2 (d1)  -0.1176  0.0000  0.0000 -0.1257  0.0000  0.0000  0.0000  0.0695
  26.  O 2 (d4)  -0.1176  0.0000  0.0000 -0.1257  0.0000  0.0000  0.0000 -0.0920
  27.  O 2 (d6)  -0.4523  0.0000  0.0000 -0.0732  0.0000  0.0000  0.0000 -0.0094
  28.  O 2 (d2)   0.0000  0.0000  0.0000  0.0000 -0.0933  0.0000  0.0000  0.0000
  29.  O 2 (d3)   0.0000  0.0160  0.0000  0.0000  0.0000  0.3998  0.0000  0.0000
  30.  O 2 (d5)   0.0000  0.0000  0.0157  0.0000  0.0000  0.0000  0.3998  0.0000

          AO        17      18      19      20      21      22      23      24
      ---------- ------- ------- ------- ------- ------- ------- ------- -------
   1.  N 1 (s)    0.0208 -0.0172 -0.0116  0.0000  0.0000 -0.0225  0.0000  0.0000
   2.  N 1 (s)    0.1232  0.1615 -0.1753  0.0000  0.0000 -0.1269  0.0000  0.0000
   3.  N 1 (px)   0.0000  0.0000  0.0000 -0.0738  0.0000  0.0000  0.0000  0.1913
   4.  N 1 (py)   0.0000  0.0000  0.0000  0.0000 -0.0729  0.0000  0.0000  0.0000
   5.  N 1 (pz)  -0.2653  0.2509 -0.4313  0.0000  0.0000  0.0183  0.0000  0.0000
   6.  N 1 (s)   -2.0635  3.4374 -0.5225  0.0000  0.0000  0.3113  0.0000  0.0000
   7.  N 1 (px)   0.0000  0.0000  0.0000 -0.4318  0.0000  0.0000  0.0000  0.2875
   8.  N 1 (py)   0.0000  0.0000  0.0000  0.0000 -0.4313  0.0000  0.0000  0.0000
   9.  N 1 (pz)  -1.4991  2.0942 -0.5494  0.0000  0.0000  0.3433  0.0000  0.0000
  10.  N 1 (d1)   0.6394  0.0049  0.0891  0.0000  0.0000 -0.0272  0.0000  0.0000
  11.  N 1 (d4)   0.6341  0.0034  0.0891  0.0000  0.0000 -0.0272  0.0000  0.0000
  12.  N 1 (d6)  -1.4321  0.1032 -0.4494  0.0000  0.0000  0.0635  0.0000  0.0000
  13.  N 1 (d2)   0.0000  0.0000  0.0000  0.0000  0.0000  0.0000 -0.0556  0.0000
  14.  N 1 (d3)   0.0000  0.0000  0.0000 -0.0389  0.0000  0.0000  0.0000  0.2388
  15.  N 1 (d5)   0.0000  0.0000  0.0000  0.0000 -0.0388  0.0000  0.0000  0.0000
  16.  O 2 (s)   -0.0976  0.2460  0.3758  0.0000  0.0000 -0.0086  0.0000  0.0000
  17.  O 2 (s)    0.2630  1.3774 -0.5935  0.0000  0.0000  0.8971  0.0000  0.0000
  18.  O 2 (px)   0.0000  0.0000  0.0000 -0.8987  0.0000  0.0000  0.0000  0.0440
  19.  O 2 (py)   0.0000  0.0000  0.0000  0.0000 -0.9050  0.0000  0.0000  0.0000
  20.  O 2 (pz)  -0.5162 -0.3710 -0.1603  0.0000  0.0000  0.7487  0.0000  0.0000
  21.  O 2 (s)    2.5750 -6.3754 -1.3819  0.0000  0.0000 -1.6808  0.0000  0.0000
  22.  O 2 (px)   0.0000  0.0000  0.0000  1.2926  0.0000  0.0000  0.0000 -0.2275
  23.  O 2 (py)   0.0000  0.0000  0.0000  0.0000  1.2887  0.0000  0.0000  0.0000
  24.  O 2 (pz)  -1.0680  2.7494 -0.6023  0.0000  0.0000 -0.6812  0.0000  0.0000
  25.  O 2 (d1)  -0.3423  0.7961  1.1977  0.0000  0.0000  0.2114  0.0000  0.0000
  26.  O 2 (d4)  -0.3418  0.8227  1.1977  0.0000  0.0000  0.2114  0.0000  0.0000
  27.  O 2 (d6)   0.1710  0.8339  1.6294  0.0000  0.0000  0.1777  0.0000  0.0000
  28.  O 2 (d2)   0.0000  0.0000  0.0000  0.0000  0.0000  0.0000  1.0067  0.0000
  29.  O 2 (d3)   0.0000  0.0000  0.0000 -0.0460  0.0000  0.0000  0.0000  1.1478
  30.  O 2 (d5)   0.0000  0.0000  0.0000  0.0000 -0.0455  0.0000  0.0000  0.0000

          AO        25      26      27      28      29      30
      ---------- ------- ------- ------- ------- ------- -------
   1.  N 1 (s)    0.0000 -0.0005  0.0344 -0.0903  0.0000  0.0000
   2.  N 1 (s)    0.0000  0.0037  0.6963  0.6619  0.0000  0.0000
   3.  N 1 (px)   0.0000  0.0000  0.0000  0.0000  0.0000  0.6858
   4.  N 1 (py)   0.1913  0.0000  0.0000  0.0000  0.6853  0.0000
   5.  N 1 (pz)   0.0000  0.0052  0.8091  0.8041  0.0000  0.0000
   6.  N 1 (s)    0.0000  0.0531  2.0963 -0.3625  0.0000  0.0000
   7.  N 1 (px)   0.0000  0.0000  0.0000  0.0000  0.0000  0.3625
   8.  N 1 (py)   0.2875  0.0000  0.0000  0.0000  0.3791  0.0000
   9.  N 1 (pz)   0.0000  0.0328  1.2017 -0.0444  0.0000  0.0000
  10.  N 1 (d1)   0.0000 -0.0480 -0.0462  0.0005  0.0000  0.0000
  11.  N 1 (d4)   0.0000  0.0483 -0.0462 -0.0064  0.0000  0.0000
  12.  N 1 (d6)   0.0000  0.0016  0.3017  0.0481  0.0000  0.0000
  13.  N 1 (d2)   0.0000  0.0000  0.0000  0.0000  0.0000  0.0000
  14.  N 1 (d3)   0.0000  0.0000  0.0000  0.0000  0.0000  0.0738
  15.  N 1 (d5)   0.2388  0.0000  0.0000  0.0000  0.0773  0.0000
  16.  O 2 (s)    0.0000  0.0049  0.1697  0.0571  0.0000  0.0000
  17.  O 2 (s)    0.0000  0.0157  0.5790 -0.7009  0.0000  0.0000
  18.  O 2 (px)   0.0000  0.0000  0.0000  0.0000  0.0000 -0.5202
  19.  O 2 (py)   0.0439  0.0000  0.0000  0.0000 -0.5069  0.0000
  20.  O 2 (pz)   0.0000 -0.0052 -0.0016  0.6953  0.0000  0.0000
  21.  O 2 (s)    0.0000 -0.1009 -3.7811  0.6917  0.0000  0.0000
  22.  O 2 (px)   0.0000  0.0000  0.0000  0.0000  0.0000 -0.3282
  23.  O 2 (py)  -0.2276  0.0000  0.0000  0.0000 -0.3327  0.0000
  24.  O 2 (pz)   0.0000  0.0419  1.9088  0.0511  0.0000  0.0000
  25.  O 2 (d1)   0.0000  0.8839  1.1286 -0.1351  0.0000  0.0000
  26.  O 2 (d4)   0.0000 -0.8595  1.1287 -0.1304  0.0000  0.0000
  27.  O 2 (d6)   0.0000  0.0124 -1.0564 -0.1916  0.0000  0.0000
  28.  O 2 (d2)   0.0000  0.0000  0.0000  0.0000  0.0000  0.0000
  29.  O 2 (d3)   0.0000  0.0000  0.0000  0.0000  0.0000  0.0597
  30.  O 2 (d5)   1.1478  0.0000  0.0000  0.0000  0.0601  0.0000


 3-Center, 4-Electron A:-B-:C Hyperbonds (A-B :C <=> A: B-C)
              [threshold for detection: 33.3%]

                                                  NBOs       3-center hybrids
                                              -------------  ----------------
       Hyperbond A:-B-:C   %A-B/%B-C   OCC.   BD(A-B) LP(C)  h(A)  h(B)  h(C)
      -------------------  ---------  ------  ------- -----  ----  ----  ----
      (none detected)


 SECOND ORDER PERTURBATION THEORY ANALYSIS OF FOCK MATRIX IN NBO BASIS

     Threshold for printing:   0.25 kcal/mol
                                                          E(2)  E(j)-E(i) F(i,j)
      Donor NBO (i)              Acceptor NBO (j)       kcal/mol   a.u.    a.u. 
 ===============================================================================

 within unit  1
   4. CR ( 1) N 1            18. RY*( 1) O 2              0.60   15.64    0.122
   5. CR ( 1) O 2             8. RY*( 1) N 1              1.40   19.85    0.211
   6. LP ( 1) N 1            18. RY*( 1) O 2              1.25    1.97    0.063
   7. LP ( 1) O 2             8. RY*( 1) N 1              2.75    1.59    0.084


 NATURAL BOND ORBITALS (Summary):

                                                     Principal Delocalizations
           NBO                 Occupancy    Energy   (geminal,vicinal,remote)
 ===============================================================================
 Molecular unit  1  (NO)
   1. BD ( 1) N  1- O  2        1.00000    -0.49474
   2. BD ( 2) N  1- O  2        1.00000    -0.45793
   3. BD ( 3) N  1- O  2        1.00000    -1.19059
   4. CR ( 1) N  1              0.99994   -14.32244   18(v)
   5. CR ( 1) O  2              0.99994   -19.08250   8(v)
   6. LP ( 1) N  1              0.99919    -0.64471   18(v)
   7. LP ( 1) O  2              0.99791    -0.82550   8(v)
   8. RY*( 1) N  1              0.00215     0.76425
   9. RY*( 2) N  1              0.00000     3.23311
  10. RY*( 3) N  1              0.00000     0.65867
  11. RY*( 4) N  1              0.00000     0.68769
  12. RY*( 5) N  1              0.00001     0.74858
  13. RY*( 6) N  1              0.00000     1.72238
  14. RY*( 7) N  1              0.00000     2.08828
  15. RY*( 8) N  1              0.00000     2.12383
  16. RY*( 9) N  1              0.00000     1.72172
  17. RY*(10) N  1              0.00000     2.47331
  18. RY*( 1) O  2              0.00084     1.32092
  19. RY*( 2) O  2              0.00000     3.07861
  20. RY*( 3) O  2              0.00000     0.88242
  21. RY*( 4) O  2              0.00000     0.90494
  22. RY*( 5) O  2              0.00001     0.84608
  23. RY*( 6) O  2              0.00000     1.73162
  24. RY*( 7) O  2              0.00000     1.95931
  25. RY*( 8) O  2              0.00000     1.98426
  26. RY*( 9) O  2              0.00000     1.73174
  27. RY*(10) O  2              0.00001     2.75458
  28. BD*( 1) N  1- O  2        0.00000    -0.05611
  29. BD*( 2) N  1- O  2        0.00000    -0.01145
  30. BD*( 3) N  1- O  2        0.00000     0.62315
          -------------------------------
                 Total Lewis    6.99698  ( 99.9569%)
           Valence non-Lewis    0.00000  (  0.0000%)
           Rydberg non-Lewis    0.00302  (  0.0431%)
          -------------------------------
               Total unit  1    7.00000  (100.0000%)
              Charge unit  1    0.50000


 NATURAL RESONANCE THEORY ANALYSIS, beta spin:

 Maximum reference structures :    20
 Maximum resonance structures :  1300
 Memory requirements :    6230175 words of   6237612 available

   1 candidate reference structure(s) calculated by SR LEWIS
 Total of   1 candidate reference structures.
 Initial loops searched    1 bonding pattern(s); all but  1 were discarded
 Reference   1:  rho*=0.00302, f(w)=0.00000 converged after   0 iterations

                                                fractional accuracy f(w)
                  non-Lewis             -------------------------------------
  Ref     Wgt      density      d(0)      all NBOs     val+core     valence
 ----------------------------------------------------------------------------
   1    1.00000    0.00302    0.00059     0.00000      0.00000      0.00000


 TOPO matrix for the leading resonance structure:

     Atom  1   2
     ---- --- ---
   1.  N   1   3
   2.  O   3   1

         Resonance
    RS   Weight(%)                  Added(Removed)
 ---------------------------------------------------------------------------
    1*    100.00                                                            
 ---------------------------------------------------------------------------
          100.00   * Total *                [* = reference structure]


 Natural Bond Order:  (total/covalent/ionic)                                   

     Atom       1      2
     ----   ------ ------
   1.  N  t 0.5000 1.5000
          c   ---  1.0496                                                 
          i   ---  0.4504                                                 

   2.  O  t 1.5000 0.5000
          c 1.0496   ---                                                  
          i 0.4504   ---                                                  


 Natural Atomic Valencies:                                                     

                      Co-    Electro-
     Atom  Valency  Valency  Valency
     ----  -------  -------  -------
   1.  N    1.5000   1.0496   0.4504
   2.  O    1.5000   1.0496   0.4504


 Natural Bond Order (total):                                                   

     Atom    1       2
     ---- ------  ------
   1.  N  1.5000  2.5000
   2.  O  2.5000  1.5000


 Natural Atomic Valencies (total):                                             

                      Co-    Electro-
     Atom  Valency  Valency  Valency
     ----  -------  -------  -------
   1.  N    2.5000   1.7974   0.7026
   2.  O    2.5000   1.7974   0.7026

 $NRTSTRB
   STR        ! Wgt =100.00%
     LONE 1 1 2 1 END
     BOND T 1 2 END
   END
 $END
 Full mass-weighted force constant matrix:
 Low frequencies ---   -0.0014   -0.0013   -0.0003   17.7614   21.5938 1991.0611
 Diagonal vibrational polarizability:
        0.0000000       0.0000000       0.2134084
 Harmonic frequencies (cm**-1), IR intensities (KM/Mole), Raman scattering
 activities (A**4/AMU), depolarization ratios for plane and unpolarized
 incident light, reduced masses (AMU), force constants (mDyne/A),
 and normal coordinates:
                     1
                    SG
 Frequencies --  1991.0611
 Red. masses --    14.8673
 Frc consts  --    34.7258
 IR Inten    --    31.4375
 Atom AN      X      Y      Z
   1   7     0.00   0.00   0.75
   2   8     0.00   0.00  -0.66

 -------------------
 - Thermochemistry -
 -------------------
 Temperature   298.150 Kelvin.  Pressure   1.00000 Atm.
 Atom  1 has atomic number  7 and mass  14.00307
 Atom  2 has atomic number  8 and mass  15.99491
 Molecular mass:    29.99799 amu.
 Principal axes and moments of inertia in atomic units:
                           1         2         3
     EIGENVALUES --     0.00000  35.79793  35.79793
           X            0.00000   0.00000   1.00000
           Y            0.00000   1.00000   0.00000
           Z            1.00000   0.00000   0.00000
 This molecule is a prolate symmetric top.
 Rotational symmetry number  1.
 Rotational temperature (Kelvin)      2.41952
 Rotational constant (GHZ):          50.414679
 Zero-point vibrational energy      11909.2 (Joules/Mol)
                                    2.84636 (Kcal/Mol)
 Vibrational temperatures:   2864.69
          (Kelvin)
 
 Zero-point correction=                           0.004536 (Hartree/Particle)
 Thermal correction to Energy=                    0.006897
 Thermal correction to Enthalpy=                  0.007841
 Thermal correction to Gibbs Free Energy=        -0.015469
 Sum of electronic and zero-point Energies=           -129.883620
 Sum of electronic and thermal Energies=              -129.881259
 Sum of electronic and thermal Enthalpies=            -129.880315
 Sum of electronic and thermal Free Energies=         -129.903626
 
                     E (Thermal)             CV                S
                      KCal/Mol        Cal/Mol-Kelvin    Cal/Mol-Kelvin
 Total                    4.328              4.980             49.062
 Electronic               0.000              0.000              1.377
 Translational            0.889              2.981             36.129
 Rotational               0.592              1.987             11.554
 Vibrational              2.847              0.012              0.001
                       Q            Log10(Q)             Ln(Q)
 Total Bot       0.130455D+08          7.115461         16.383954
 Total V=0       0.159169D+10          9.201858         21.188061
 Vib (Bot)       0.819656D-02         -2.086368         -4.804040
 Vib (V=0)       0.100007D+01          0.000029          0.000067
 Electronic      0.200000D+01          0.301030          0.693147
 Translational   0.645793D+07          6.810093         15.680819
 Rotational      0.123227D+03          2.090706          4.814027
 ***** Axes restored to original set *****
 -------------------------------------------------------------------
 Center     Atomic                   Forces (Hartrees/Bohr)
 Number     Number              X              Y              Z
 -------------------------------------------------------------------
    1          7           0.000000000    0.000000000   -0.000000001
    2          8           0.000000000    0.000000000    0.000000001
 -------------------------------------------------------------------
 Cartesian Forces:  Max     0.000000001 RMS     0.000000001

 GradGradGradGradGradGradGradGradGradGradGradGradGradGradGradGradGradGrad
 Berny optimization.
 Search for a local minimum.
 Step number   1 out of a maximum of   2
 All quantities printed in internal units (Hartrees-Bohrs-Radians)
 Second derivative matrix not updated -- analytic derivatives used.
 The second derivative matrix:
                          X1        Y1        Z1        X2        Y2
           X1           0.00009
           Y1           0.00000   0.00013
           Z1           0.00000   0.00000   1.12014
           X2          -0.00009   0.00000   0.00000   0.00009
           Y2           0.00000  -0.00013   0.00000   0.00000   0.00013
           Z2           0.00000   0.00000  -1.12014   0.00000   0.00000
                          Z2
           Z2           1.12014
     Eigenvalues ---    2.23780
 Angle between quadratic step and forces=  90.00 degrees.
 Linear search not attempted -- first point.
 TrRot=  0.000000  0.000000  0.000000  0.000000  0.000000  0.000000
 Variable       Old X    -DE/DX   Delta X   Delta X   Delta X     New X
                                 (Linear)    (Quad)   (Total)
    X1        0.00000   0.00000   0.00000   0.00000   0.00000   0.00000
    Y1        0.00000   0.00000   0.00000   0.00000   0.00000   0.00000
    Z1       -1.16781   0.00000   0.00000   0.00000   0.00000  -1.16781
    X2        0.00000   0.00000   0.00000   0.00000   0.00000   0.00000
    Y2        0.00000   0.00000   0.00000   0.00000   0.00000   0.00000
    Z2        1.02183   0.00000   0.00000   0.00000   0.00000   1.02183
         Item               Value     Threshold  Converged?
 Maximum Force            0.000000     0.000450     YES
 RMS     Force            0.000000     0.000300     YES
 Maximum Displacement     0.000000     0.001800     YES
 RMS     Displacement     0.000000     0.001200     YES
 Predicted change in Energy=-4.587590D-19
 Optimization completed.
    -- Stationary point found.
 GradGradGradGradGradGradGradGradGradGradGradGradGradGradGradGradGradGrad

 1\1\GINC-SUN\Freq\UB3LYP\6-31G(d)\N1O1(2)\XAVIER\09-Sep-2008\0\\# B3LY
 P/6-31G* POP=(FULL,NBOREAD) GFPRINT FREQ GUESS=READ GEOM=CHECK\\InChI=
 1/NO/c1-2\\0,2\N,0.,0.,-0.6179768918\O,0.,0.,0.5407297804\\Version=x86
 -Linux-G03RevB.05\HF=-129.8881562\S2=0.752535\S2-1=0.\S2A=0.750004\RMS
 D=2.699e-10\RMSF=5.853e-10\Dipole=0.,0.,0.0348804\DipoleDeriv=-0.01591
 25,0.,0.,0.,-0.015918,0.,0.,0.,0.4906872,0.0159125,0.,0.,0.,0.015918,0
 .,0.,0.,-0.4906872\Polar=5.5447959,0.,5.232125,0.,0.,12.0101754\PG=C*V
  [C*(N1O1)]\NImag=0\\0.00008914,0.,0.00013175,0.,0.,1.12014384,-0.0000
 8914,0.,0.,0.00008914,0.,-0.00013175,0.,0.,0.00013175,0.,0.,-1.1201438
 4,0.,0.,1.12014384\\0.,0.,0.,0.,0.,0.\\\@


 AN AIRPLANE IS A COLLECTION OF SPARE PARTS
 FLYING IN CLOSE FORMATION.
 Job cpu time:  0 days  0 hours  0 minutes 10.1 seconds.
 File lengths (MBytes):  RWF=      7 Int=      0 D2E=      0 Chk=      4 Scr=      1
 Normal termination of Gaussian 03 at Tue Sep  9 17:06:08 2008.
