 Entering Gaussian System, Link 0=/gaussian/g03/g03
 Input=no2.nbo.com
 Output=no2.nbo.log
 Initial command:
 /gaussian/g03/l1.exe /scratch/Gau-5003.inp -scrdir=/scratch/
 Entering Link 1 = /gaussian/g03/l1.exe PID=      5004.
  
 Copyright (c) 1988,1990,1992,1993,1995,1998,2003, Gaussian, Inc.
                  All Rights Reserved.
  
 This is the Gaussian(R) 03 program.  It is based on the
 the Gaussian(R) 98 system (copyright 1998, Gaussian, Inc.),
 the Gaussian(R) 94 system (copyright 1995, Gaussian, Inc.),
 the Gaussian 92(TM) system (copyright 1992, Gaussian, Inc.),
 the Gaussian 90(TM) system (copyright 1990, Gaussian, Inc.),
 the Gaussian 88(TM) system (copyright 1988, Gaussian, Inc.),
 the Gaussian 86(TM) system (copyright 1986, Carnegie Mellon
 University), and the Gaussian 82(TM) system (copyright 1983,
 Carnegie Mellon University). Gaussian is a federally registered
 trademark of Gaussian, Inc.
  
 This software contains proprietary and confidential information,
 including trade secrets, belonging to Gaussian, Inc.
  
 This software is provided under written license and may be
 used, copied, transmitted, or stored only in accord with that
 written license.
  
 The following legend is applicable only to US Government
 contracts under DFARS:
  
                    RESTRICTED RIGHTS LEGEND
  
 Use, duplication or disclosure by the US Government is subject
 to restrictions as set forth in subparagraph (c)(1)(ii) of the
 Rights in Technical Data and Computer Software clause at DFARS
 252.227-7013.
  
 Gaussian, Inc.
 Carnegie Office Park, Building 6, Pittsburgh, PA 15106 USA
  
 The following legend is applicable only to US Government
 contracts under FAR:
  
                    RESTRICTED RIGHTS LEGEND
  
 Use, reproduction and disclosure by the US Government is subject
 to restrictions as set forth in subparagraph (c) of the
 Commercial Computer Software - Restricted Rights clause at FAR
 52.227-19.
  
 Gaussian, Inc.
 Carnegie Office Park, Building 6, Pittsburgh, PA 15106 USA
  
  
 ---------------------------------------------------------------
 Warning -- This program may not be used in any manner that
 competes with the business of Gaussian, Inc. or will provide
 assistance to any competitor of Gaussian, Inc.  The licensee
 of this program is prohibited from giving any competitor of
 Gaussian, Inc. access to this program.  By using this program,
 the user acknowledges that Gaussian, Inc. is engaged in the
 business of creating and licensing software in the field of
 computational chemistry and represents and warrants to the
 licensee that it is not a competitor of Gaussian, Inc. and that
 it will not use this program in any manner prohibited above.
 ---------------------------------------------------------------
  

 Cite this work as:
 Gaussian 03, Revision B.05,
 M. J. Frisch, G. W. Trucks, H. B. Schlegel, G. E. Scuseria, 
 M. A. Robb, J. R. Cheeseman, J. A. Montgomery, Jr., T. Vreven, 
 K. N. Kudin, J. C. Burant, J. M. Millam, S. S. Iyengar, J. Tomasi, 
 V. Barone, B. Mennucci, M. Cossi, G. Scalmani, N. Rega, 
 G. A. Petersson, H. Nakatsuji, M. Hada, M. Ehara, K. Toyota, 
 R. Fukuda, J. Hasegawa, M. Ishida, T. Nakajima, Y. Honda, O. Kitao, 
 H. Nakai, M. Klene, X. Li, J. E. Knox, H. P. Hratchian, J. B. Cross, 
 C. Adamo, J. Jaramillo, R. Gomperts, R. E. Stratmann, O. Yazyev, 
 A. J. Austin, R. Cammi, C. Pomelli, J. W. Ochterski, P. Y. Ayala, 
 K. Morokuma, G. A. Voth, P. Salvador, J. J. Dannenberg, 
 V. G. Zakrzewski, S. Dapprich, A. D. Daniels, M. C. Strain, 
 O. Farkas, D. K. Malick, A. D. Rabuck, K. Raghavachari, 
 J. B. Foresman, J. V. Ortiz, Q. Cui, A. G. Baboul, S. Clifford, 
 J. Cioslowski, B. B. Stefanov, G. Liu, A. Liashenko, P. Piskorz, 
 I. Komaromi, R. L. Martin, D. J. Fox, T. Keith, M. A. Al-Laham, 
 C. Y. Peng, A. Nanayakkara, M. Challacombe, P. M. W. Gill, 
 B. Johnson, W. Chen, M. W. Wong, C. Gonzalez, and J. A. Pople, 
 Gaussian, Inc., Pittsburgh PA, 2003.
 
 **********************************************
 Gaussian 03:  x86-Linux-G03RevB.05  8-Nov-2003
                   9-Sep-2008 
 **********************************************
 %chk=../CHK/no2.chk
 --------------------------------------------------------------------
 # b3lyp/6-31g* pop=(full,nboread) gfprint freq guess=read geom=check
 --------------------------------------------------------------------
 1/10=4,29=2,30=1,38=1/1,3;
 2/40=1/2;
 3/5=1,6=6,7=1,11=2,16=1,24=100,25=1,30=1,74=-5/1,2,3;
 4/5=1/1;
 5/5=2,38=6/2;
 8/6=4,10=90,11=11/1;
 11/6=1,8=1,9=11,15=111,16=1/1,2,10;
 10/6=1/2;
 6/7=3,18=1,28=1,40=1/1,7;
 7/8=1,10=1,25=1/1,2,3,16;
 1/10=4,30=1/3;
 99//99;
 ------------------
 InChI=1/NO2/c2-1-3
 ------------------
 No Z-matrix found on checkpoint file.
 Cartesian coordinates read from the checkpoint file:
 ../CHK/no2.chk
 Charge =  0 Multiplicity = 2
  O                                                 0.000000000000      1.106708629605     -0.143637301262
  N                                                 0.000000000000      0.000000000000      0.328313831228
  O                                                 0.000000000000     -1.106708629605     -0.143637301262
 Recover connectivity data from disk.

 GradGradGradGradGradGradGradGradGradGradGradGradGradGradGradGradGradGrad
 Berny optimization.
 Initialization pass.
 Trust Radius=3.00D-01 FncErr=1.00D-07 GrdErr=1.00D-07
 Number of steps in this run=   2 maximum allowed number of steps=   2.
 GradGradGradGradGradGradGradGradGradGradGradGradGradGradGradGradGradGrad

                          Input orientation:                          
 ---------------------------------------------------------------------
 Center     Atomic     Atomic              Coordinates (Angstroms)
 Number     Number      Type              X           Y           Z
 ---------------------------------------------------------------------
    1          8             0        0.000000    1.106709   -0.143637
    2          7             0        0.000000    0.000000    0.328314
    3          8             0        0.000000   -1.106709   -0.143637
 ---------------------------------------------------------------------
                    Distance matrix (angstroms):
                    1          2          3
     1  O    0.000000
     2  N    1.203138   0.000000
     3  O    2.213417   1.203138   0.000000
 Stoichiometry    NO2(2)
 Framework group  C2V[C2(N),SGV(O2)]
 Deg. of freedom     2
 Full point group                 C2V     NOp   4
 Largest Abelian subgroup         C2V     NOp   4
 Largest concise Abelian subgroup C2      NOp   2
                         Standard orientation:                         
 ---------------------------------------------------------------------
 Center     Atomic     Atomic              Coordinates (Angstroms)
 Number     Number      Type              X           Y           Z
 ---------------------------------------------------------------------
    1          8             0        0.000000    1.106709   -0.143637
    2          7             0        0.000000    0.000000    0.328314
    3          8             0        0.000000   -1.106709   -0.143637
 ---------------------------------------------------------------------
 Rotational constants (GHZ):    232.9585479     12.8984844     12.2217866
 Standard basis: 6-31G(d) (6D, 7F)
 AO basis set:
 Atom O1       Shell     1 S   6     bf    1 -     1          0.000000000000          2.091376220000         -0.271435161870
      0.5484671660D+04  0.1831074430D-02
      0.8252349460D+03  0.1395017220D-01
      0.1880469580D+03  0.6844507810D-01
      0.5296450000D+02  0.2327143360D+00
      0.1689757040D+02  0.4701928980D+00
      0.5799635340D+01  0.3585208530D+00
 Atom O1       Shell     2 SP   3    bf    2 -     5          0.000000000000          2.091376220000         -0.271435161870
      0.1553961625D+02 -0.1107775495D+00  0.7087426823D-01
      0.3599933586D+01 -0.1480262627D+00  0.3397528391D+00
      0.1013761750D+01  0.1130767015D+01  0.7271585773D+00
 Atom O1       Shell     3 SP   1    bf    6 -     9          0.000000000000          2.091376220000         -0.271435161870
      0.2700058226D+00  0.1000000000D+01  0.1000000000D+01
 Atom O1       Shell     4 D   1     bf   10 -    15          0.000000000000          2.091376220000         -0.271435161870
      0.8000000000D+00  0.1000000000D+01
 Atom N2       Shell     5 S   6     bf   16 -    16          0.000000000000          0.000000000000          0.620423227130
      0.4173511460D+04  0.1834772160D-02
      0.6274579110D+03  0.1399462700D-01
      0.1429020930D+03  0.6858655181D-01
      0.4023432930D+02  0.2322408730D+00
      0.1282021290D+02  0.4690699481D+00
      0.4390437010D+01  0.3604551991D+00
 Atom N2       Shell     6 SP   3    bf   17 -    20          0.000000000000          0.000000000000          0.620423227130
      0.1162636186D+02 -0.1149611817D+00  0.6757974388D-01
      0.2716279807D+01 -0.1691174786D+00  0.3239072959D+00
      0.7722183966D+00  0.1145851947D+01  0.7408951398D+00
 Atom N2       Shell     7 SP   1    bf   21 -    24          0.000000000000          0.000000000000          0.620423227130
      0.2120314975D+00  0.1000000000D+01  0.1000000000D+01
 Atom N2       Shell     8 D   1     bf   25 -    30          0.000000000000          0.000000000000          0.620423227130
      0.8000000000D+00  0.1000000000D+01
 Atom O3       Shell     9 S   6     bf   31 -    31          0.000000000000         -2.091376220000         -0.271435161870
      0.5484671660D+04  0.1831074430D-02
      0.8252349460D+03  0.1395017220D-01
      0.1880469580D+03  0.6844507810D-01
      0.5296450000D+02  0.2327143360D+00
      0.1689757040D+02  0.4701928980D+00
      0.5799635340D+01  0.3585208530D+00
 Atom O3       Shell    10 SP   3    bf   32 -    35          0.000000000000         -2.091376220000         -0.271435161870
      0.1553961625D+02 -0.1107775495D+00  0.7087426823D-01
      0.3599933586D+01 -0.1480262627D+00  0.3397528391D+00
      0.1013761750D+01  0.1130767015D+01  0.7271585773D+00
 Atom O3       Shell    11 SP   1    bf   36 -    39          0.000000000000         -2.091376220000         -0.271435161870
      0.2700058226D+00  0.1000000000D+01  0.1000000000D+01
 Atom O3       Shell    12 D   1     bf   40 -    45          0.000000000000         -2.091376220000         -0.271435161870
      0.8000000000D+00  0.1000000000D+01
 There are    19 symmetry adapted basis functions of A1  symmetry.
 There are     5 symmetry adapted basis functions of A2  symmetry.
 There are     7 symmetry adapted basis functions of B1  symmetry.
 There are    14 symmetry adapted basis functions of B2  symmetry.
 Integral buffers will be    262144 words long.
 Raffenetti 2 integral format.
 Two-electron integral symmetry is turned on.
    45 basis functions,    84 primitive gaussians,    45 cartesian basis functions
    12 alpha electrons       11 beta electrons
       nuclear repulsion energy        64.5619706957 Hartrees.
 NAtoms=    3 NActive=    3 NUniq=    2 SFac= 2.76D+00 NAtFMM=   60 Big=F
 One-electron integrals computed using PRISM.
 NBasis=    45 RedAO= T  NBF=    19     5     7    14
 NBsUse=    45 1.00D-06 NBFU=    19     5     7    14
 Initial guess read from the checkpoint file:
 ../CHK/no2.chk
 Initial guess orbital symmetries:
 Alpha Orbitals:
       Occupied  (B2) (A1) (A1) (A1) (B2) (A1) (A1) (B2) (B1) (B2)
                 (A2) (A1)
       Virtual   (B1) (A1) (B2) (A1) (A1) (B2) (B1) (A1) (B2) (A2)
                 (A1) (B1) (B2) (A1) (A2) (B2) (B1) (A1) (B2) (A2)
                 (A1) (B1) (B2) (A1) (B1) (B2) (A1) (A2) (B2) (A1)
                 (A1) (B2) (A1)
 Beta  Orbitals:
       Occupied  (B2) (A1) (A1) (A1) (B2) (A1) (B1) (B2) (A1) (A2)
                 (B2)
       Virtual   (A1) (B1) (A1) (B2) (A1) (B2) (B1) (A1) (A1) (B2)
                 (A2) (A1) (B1) (B2) (A1) (A2) (B2) (B1) (A1) (B2)
                 (A2) (A1) (B2) (B1) (A1) (B1) (B2) (A1) (A2) (B2)
                 (A1) (A1) (B2) (A1)
 <S**2> of initial guess= 0.7533
 Requested convergence on RMS density matrix=1.00D-08 within 128 cycles.
 Requested convergence on MAX density matrix=1.00D-06.
 Requested convergence on             energy=1.00D-06.
 No special actions if energy rises.
 Keep R1 and R2 integrals in memory in canonical form, NReq=     1597892.
 SCF Done:  E(UB+HF-LYP) =  -205.072206139     A.U. after    1 cycles
             Convg  =    0.3207D-09             -V/T =  2.0086
             S**2   =   0.7533
 Annihilation of the first spin contaminant:
 S**2 before annihilation     0.7533,   after     0.7500
 Range of M.O.s used for correlation:     1    45
 NBasis=    45 NAE=    12 NBE=    11 NFC=     0 NFV=     0
 NROrb=     45 NOA=    12 NOB=    11 NVA=    33 NVB=    34
 Symmetrizing basis deriv contribution to polar:
 IMax=3 JMax=2 DiffMx= 0.00D+00
 G2DrvN: will do    4 centers at a time, making    1 passes doing MaxLOS=2.
 FoFDir/FoFCou used for L=0 through L=2.
          Differentiating once with respect to electric field.
                with respect to dipole field.
          Differentiating once with respect to nuclear coordinates.
          Store integrals in memory, NReq=     1502770.
          There are   9 degrees of freedom in the 1st order CPHF.
     9 vectors were produced by pass  0.
 AX will form   9 AO Fock derivatives at one time.
     9 vectors were produced by pass  1.
     9 vectors were produced by pass  2.
     9 vectors were produced by pass  3.
     9 vectors were produced by pass  4.
     9 vectors were produced by pass  5.
     9 vectors were produced by pass  6.
     6 vectors were produced by pass  7.
     2 vectors were produced by pass  8.
     1 vectors were produced by pass  9.
 Inv2:  IOpt= 1 Iter= 1 AM= 1.15D-15 Conv= 1.00D-12.
 Inverted reduced A of dimension   72 with in-core refinement.
 Isotropic polarizability for W=    0.000000       13.38 Bohr**3.
 End of Minotr Frequency-dependent properties file   721 does not exist.

 **********************************************************************

            Population analysis using the SCF density.

 **********************************************************************

 Orbital symmetries:
 Alpha Orbitals:
       Occupied  (B2) (A1) (A1) (A1) (B2) (A1) (A1) (B2) (B1) (B2)
                 (A2) (A1)
       Virtual   (B1) (A1) (B2) (A1) (A1) (B2) (B1) (A1) (B2) (A2)
                 (A1) (B1) (B2) (A1) (A2) (B2) (B1) (A1) (B2) (A2)
                 (A1) (B1) (B2) (A1) (B1) (B2) (A1) (A2) (B2) (A1)
                 (A1) (B2) (A1)
 Beta  Orbitals:
       Occupied  (B2) (A1) (A1) (A1) (B2) (A1) (B1) (B2) (A1) (A2)
                 (B2)
       Virtual   (A1) (B1) (A1) (B2) (A1) (B2) (B1) (A1) (A1) (B2)
                 (A2) (A1) (B1) (B2) (A1) (A2) (B2) (B1) (A1) (B2)
                 (A2) (A1) (B2) (B1) (A1) (B1) (B2) (A1) (A2) (B2)
                 (A1) (A1) (B2) (A1)
 The electronic state is 2-A1.
 Alpha  occ. eigenvalues --  -19.26564 -19.26563 -14.58716  -1.28184  -1.13634
 Alpha  occ. eigenvalues --   -0.67825  -0.57495  -0.57202  -0.56498  -0.38151
 Alpha  occ. eigenvalues --   -0.37744  -0.28776
 Alpha virt. eigenvalues --   -0.09029   0.21037   0.36949   0.58381   0.59070
 Alpha virt. eigenvalues --    0.59286   0.61180   0.77978   0.82018   0.87942
 Alpha virt. eigenvalues --    0.88908   0.93806   0.95244   1.27313   1.37164
 Alpha virt. eigenvalues --    1.38997   1.39938   1.46790   1.71168   1.73081
 Alpha virt. eigenvalues --    1.81276   1.83224   1.83322   2.19681   2.32464
 Alpha virt. eigenvalues --    2.64127   2.69436   2.70379   2.77148   2.85840
 Alpha virt. eigenvalues --    3.40621   3.62593   3.70464
  Beta  occ. eigenvalues --  -19.25673 -19.25671 -14.57653  -1.26315  -1.11483
  Beta  occ. eigenvalues --   -0.64488  -0.55405  -0.54824  -0.52978  -0.36984
  Beta  occ. eigenvalues --   -0.34101
  Beta virt. eigenvalues --   -0.14316  -0.07381   0.22363   0.39522   0.59691
  Beta virt. eigenvalues --    0.59884   0.61970   0.62072   0.78562   0.83806
  Beta virt. eigenvalues --    0.88373   0.91475   0.94466   0.96907   1.28885
  Beta virt. eigenvalues --    1.37681   1.40282   1.42015   1.48851   1.72947
  Beta virt. eigenvalues --    1.74228   1.83396   1.84258   1.85514   2.21394
  Beta virt. eigenvalues --    2.33481   2.67004   2.71449   2.71471   2.78124
  Beta virt. eigenvalues --    2.87524   3.42424   3.63843   3.72433
     Alpha Molecular Orbital Coefficients
                           1         2         3         4         5
                        (B2)--O   (A1)--O   (A1)--O   (A1)--O   (B2)--O
     EIGENVALUES --   -19.26564 -19.26563 -14.58716  -1.28184  -1.13634
   1 1   O  1S          0.70200   0.70203   0.00000  -0.11436  -0.14453
   2        2S          0.01850   0.01867   0.00046   0.26078   0.32686
   3        2PX         0.00000   0.00000   0.00000   0.00000   0.00000
   4        2PY        -0.00094  -0.00102  -0.00011  -0.12851  -0.11168
   5        2PZ         0.00034   0.00048   0.00005   0.04787   0.06480
   6        3S          0.00915   0.00848  -0.00140   0.18974   0.30298
   7        3PX         0.00000   0.00000   0.00000   0.00000   0.00000
   8        3PY        -0.00096  -0.00109   0.00059  -0.04690  -0.04768
   9        3PZ         0.00061   0.00040  -0.00022   0.01454   0.03008
  10        4XX        -0.00568  -0.00561   0.00028  -0.00507  -0.00773
  11        4YY        -0.00528  -0.00523  -0.00028   0.01915   0.00321
  12        4ZZ        -0.00559  -0.00534   0.00020  -0.00281   0.00020
  13        4XY         0.00000   0.00000   0.00000   0.00000   0.00000
  14        4XZ         0.00000   0.00000   0.00000   0.00000   0.00000
  15        4YZ        -0.00009  -0.00037   0.00020  -0.00992  -0.01122
  16 2   N  1S          0.00000   0.00014   0.99280  -0.15568   0.00000
  17        2S          0.00000   0.00084   0.03481   0.35084   0.00000
  18        2PX         0.00000   0.00000   0.00000   0.00000   0.00000
  19        2PY         0.00015   0.00000   0.00000   0.00000   0.32247
  20        2PZ         0.00000  -0.00002  -0.00120  -0.10685   0.00000
  21        3S          0.00000  -0.00491   0.00447   0.12948   0.00000
  22        3PX         0.00000   0.00000   0.00000   0.00000   0.00000
  23        3PY        -0.00330   0.00000   0.00000   0.00000  -0.00522
  24        3PZ         0.00000   0.00120  -0.00008  -0.00117   0.00000
  25        4XX         0.00000   0.00038  -0.00827  -0.01617   0.00000
  26        4YY         0.00000  -0.00121  -0.00759   0.02041   0.00000
  27        4ZZ         0.00000   0.00018  -0.00791  -0.00646   0.00000
  28        4XY         0.00000   0.00000   0.00000   0.00000   0.00000
  29        4XZ         0.00000   0.00000   0.00000   0.00000   0.00000
  30        4YZ         0.00064   0.00000   0.00000   0.00000  -0.03108
  31 3   O  1S         -0.70200   0.70203   0.00000  -0.11436   0.14453
  32        2S         -0.01850   0.01867   0.00046   0.26078  -0.32686
  33        2PX         0.00000   0.00000   0.00000   0.00000   0.00000
  34        2PY        -0.00094   0.00102   0.00011   0.12851  -0.11168
  35        2PZ        -0.00034   0.00048   0.00005   0.04787  -0.06480
  36        3S         -0.00915   0.00848  -0.00140   0.18974  -0.30298
  37        3PX         0.00000   0.00000   0.00000   0.00000   0.00000
  38        3PY        -0.00096   0.00109  -0.00059   0.04690  -0.04768
  39        3PZ        -0.00061   0.00040  -0.00022   0.01454  -0.03008
  40        4XX         0.00568  -0.00561   0.00028  -0.00507   0.00773
  41        4YY         0.00528  -0.00523  -0.00028   0.01915  -0.00321
  42        4ZZ         0.00559  -0.00534   0.00020  -0.00281  -0.00020
  43        4XY         0.00000   0.00000   0.00000   0.00000   0.00000
  44        4XZ         0.00000   0.00000   0.00000   0.00000   0.00000
  45        4YZ        -0.00009   0.00037  -0.00020   0.00992  -0.01122
                           6         7         8         9        10
                        (A1)--O   (A1)--O   (B2)--O   (B1)--O   (B2)--O
     EIGENVALUES --    -0.67825  -0.57495  -0.57202  -0.56498  -0.38151
   1 1   O  1S         -0.11464  -0.03464   0.07994   0.00000  -0.00268
   2        2S          0.25520   0.07316  -0.17056   0.00000   0.00770
   3        2PX         0.00000   0.00000   0.00000   0.31333   0.00000
   4        2PY         0.18211   0.24150  -0.29363   0.00000   0.29188
   5        2PZ        -0.13999   0.20996   0.22760   0.00000   0.40251
   6        3S          0.40081   0.13869  -0.30768   0.00000  -0.02346
   7        3PX         0.00000   0.00000   0.00000   0.16658   0.00000
   8        3PY         0.06310   0.11862  -0.13580   0.00000   0.20090
   9        3PZ        -0.06242   0.11113   0.11305   0.00000   0.24958
  10        4XX        -0.00160   0.00093  -0.00134   0.00000   0.00168
  11        4YY        -0.02021  -0.02607   0.01819   0.00000  -0.01703
  12        4ZZ        -0.00664   0.01325   0.00561   0.00000   0.01328
  13        4XY         0.00000   0.00000   0.00000  -0.02795   0.00000
  14        4XZ         0.00000   0.00000   0.00000   0.01103   0.00000
  15        4YZ         0.01521  -0.01169  -0.01580   0.00000  -0.00946
  16 2   N  1S          0.13750  -0.01611   0.00000   0.00000   0.00000
  17        2S         -0.34631   0.02592   0.00000   0.00000   0.00000
  18        2PX         0.00000   0.00000   0.00000   0.46947   0.00000
  19        2PY         0.00000   0.00000   0.36033   0.00000  -0.05338
  20        2PZ        -0.12246   0.46579   0.00000   0.00000   0.00000
  21        3S         -0.38776   0.09436   0.00000   0.00000   0.00000
  22        3PX         0.00000   0.00000   0.00000   0.22532   0.00000
  23        3PY         0.00000   0.00000   0.08582   0.00000   0.06722
  24        3PZ        -0.03911   0.20364   0.00000   0.00000   0.00000
  25        4XX         0.00158   0.00350   0.00000   0.00000   0.00000
  26        4YY         0.01520   0.01782   0.00000   0.00000   0.00000
  27        4ZZ         0.00710  -0.02571   0.00000   0.00000   0.00000
  28        4XY         0.00000   0.00000   0.00000   0.00000   0.00000
  29        4XZ         0.00000   0.00000   0.00000  -0.01987   0.00000
  30        4YZ         0.00000   0.00000  -0.00509   0.00000   0.04135
  31 3   O  1S         -0.11464  -0.03464  -0.07994   0.00000   0.00268
  32        2S          0.25520   0.07316   0.17056   0.00000  -0.00770
  33        2PX         0.00000   0.00000   0.00000   0.31333   0.00000
  34        2PY        -0.18211  -0.24150  -0.29363   0.00000   0.29188
  35        2PZ        -0.13999   0.20996  -0.22760   0.00000  -0.40251
  36        3S          0.40081   0.13869   0.30768   0.00000   0.02346
  37        3PX         0.00000   0.00000   0.00000   0.16658   0.00000
  38        3PY        -0.06310  -0.11862  -0.13580   0.00000   0.20090
  39        3PZ        -0.06242   0.11113  -0.11305   0.00000  -0.24958
  40        4XX        -0.00160   0.00093   0.00134   0.00000  -0.00168
  41        4YY        -0.02021  -0.02607  -0.01819   0.00000   0.01703
  42        4ZZ        -0.00664   0.01325  -0.00561   0.00000  -0.01328
  43        4XY         0.00000   0.00000   0.00000   0.02795   0.00000
  44        4XZ         0.00000   0.00000   0.00000   0.01103   0.00000
  45        4YZ        -0.01521   0.01169  -0.01580   0.00000  -0.00946
                          11        12        13        14        15
                        (A2)--O   (A1)--O   (B1)--V   (A1)--V   (B2)--V
     EIGENVALUES --    -0.37744  -0.28776  -0.09029   0.21037   0.36949
   1 1   O  1S          0.00000   0.01441   0.00000   0.07476   0.08317
   2        2S          0.00000  -0.05399   0.00000  -0.19899  -0.19848
   3        2PX         0.48190   0.00000  -0.39034   0.00000   0.00000
   4        2PY         0.00000   0.04791   0.00000   0.39270   0.14946
   5        2PZ         0.00000  -0.42252   0.00000   0.00404  -0.21825
   6        3S          0.00000  -0.07442   0.00000  -0.89050  -1.64402
   7        3PX         0.32558   0.00000  -0.35513   0.00000   0.00000
   8        3PY         0.00000   0.03787   0.00000   0.74622   0.83702
   9        3PZ         0.00000  -0.31759   0.00000  -0.04508  -0.60135
  10        4XX         0.00000  -0.00189   0.00000   0.00662  -0.00481
  11        4YY         0.00000  -0.00686   0.00000   0.00700  -0.02448
  12        4ZZ         0.00000  -0.00063   0.00000  -0.01956   0.01614
  13        4XY        -0.01987   0.00000  -0.00930   0.00000   0.00000
  14        4XZ         0.00876   0.00000   0.00656   0.00000   0.00000
  15        4YZ         0.00000   0.00372   0.00000   0.01131  -0.00251
  16 2   N  1S          0.00000  -0.07053   0.00000  -0.12516   0.00000
  17        2S          0.00000   0.13502   0.00000   0.23745   0.00000
  18        2PX         0.00000   0.00000   0.57204   0.00000   0.00000
  19        2PY         0.00000   0.00000   0.00000   0.00000   0.56167
  20        2PZ         0.00000   0.40941   0.00000  -0.43183   0.00000
  21        3S          0.00000   0.54090   0.00000   2.01891   0.00000
  22        3PX         0.00000   0.00000   0.46863   0.00000   0.00000
  23        3PY         0.00000   0.00000   0.00000   0.00000   2.45413
  24        3PZ         0.00000   0.21101   0.00000  -0.83839   0.00000
  25        4XX         0.00000   0.00368   0.00000   0.02266   0.00000
  26        4YY         0.00000  -0.05754   0.00000  -0.07316   0.00000
  27        4ZZ         0.00000   0.01744   0.00000  -0.00786   0.00000
  28        4XY         0.05074   0.00000   0.00000   0.00000   0.00000
  29        4XZ         0.00000   0.00000   0.01244   0.00000   0.00000
  30        4YZ         0.00000   0.00000   0.00000   0.00000   0.01951
  31 3   O  1S          0.00000   0.01441   0.00000   0.07476  -0.08317
  32        2S          0.00000  -0.05399   0.00000  -0.19899   0.19848
  33        2PX        -0.48190   0.00000  -0.39034   0.00000   0.00000
  34        2PY         0.00000  -0.04791   0.00000  -0.39270   0.14946
  35        2PZ         0.00000  -0.42252   0.00000   0.00404   0.21825
  36        3S          0.00000  -0.07442   0.00000  -0.89050   1.64402
  37        3PX        -0.32558   0.00000  -0.35513   0.00000   0.00000
  38        3PY         0.00000  -0.03787   0.00000  -0.74622   0.83702
  39        3PZ         0.00000  -0.31759   0.00000  -0.04508   0.60135
  40        4XX         0.00000  -0.00189   0.00000   0.00662   0.00481
  41        4YY         0.00000  -0.00686   0.00000   0.00700   0.02448
  42        4ZZ         0.00000  -0.00063   0.00000  -0.01956  -0.01614
  43        4XY        -0.01987   0.00000   0.00930   0.00000   0.00000
  44        4XZ        -0.00876   0.00000   0.00656   0.00000   0.00000
  45        4YZ         0.00000  -0.00372   0.00000  -0.01131  -0.00251
                          16        17        18        19        20
                        (A1)--V   (A1)--V   (B2)--V   (B1)--V   (A1)--V
     EIGENVALUES --     0.58381   0.59070   0.59286   0.61180   0.77978
   1 1   O  1S         -0.01006   0.00830  -0.00817   0.00000   0.01584
   2        2S         -0.31191  -0.14340  -0.08410   0.00000  -0.16735
   3        2PX         0.00000   0.00000   0.00000  -0.22654   0.00000
   4        2PY        -0.12477  -0.09630  -0.29075   0.00000  -0.51114
   5        2PZ         0.07823   0.24301   0.01678   0.00000  -0.04123
   6        3S          0.30143  -0.58735  -0.90790   0.00000  -0.19945
   7        3PX         0.00000   0.00000   0.00000  -0.05738   0.00000
   8        3PY         0.02979   0.57303   0.36570   0.00000   1.08516
   9        3PZ        -0.10906  -0.11231  -0.24609   0.00000  -0.21322
  10        4XX        -0.07318   0.00342   0.00963   0.00000  -0.06314
  11        4YY        -0.15106  -0.19863  -0.16308   0.00000  -0.12288
  12        4ZZ        -0.11168  -0.01412  -0.03295   0.00000  -0.07622
  13        4XY         0.00000   0.00000   0.00000   0.06097   0.00000
  14        4XZ         0.00000   0.00000   0.00000  -0.02145   0.00000
  15        4YZ         0.07418   0.04149   0.11053   0.00000   0.01280
  16 2   N  1S          0.01493   0.00297   0.00000   0.00000   0.04100
  17        2S         -1.07869  -0.23479   0.00000   0.00000   0.34497
  18        2PX         0.00000   0.00000   0.00000  -0.85142   0.00000
  19        2PY         0.00000   0.00000  -0.78938   0.00000   0.00000
  20        2PZ        -0.29834   0.71349   0.00000   0.00000  -0.20534
  21        3S          1.60244   1.60721   0.00000   0.00000   0.88821
  22        3PX         0.00000   0.00000   0.00000   1.19571   0.00000
  23        3PY         0.00000   0.00000   2.13484   0.00000   0.00000
  24        3PZ         0.34617  -1.53348   0.00000   0.00000  -0.19306
  25        4XX        -0.19100  -0.03941   0.00000   0.00000  -0.02791
  26        4YY        -0.16010   0.17733   0.00000   0.00000   0.34538
  27        4ZZ        -0.18827  -0.07903   0.00000   0.00000   0.07068
  28        4XY         0.00000   0.00000   0.00000   0.00000   0.00000
  29        4XZ         0.00000   0.00000   0.00000   0.04276   0.00000
  30        4YZ         0.00000   0.00000  -0.12940   0.00000   0.00000
  31 3   O  1S         -0.01006   0.00830   0.00817   0.00000   0.01584
  32        2S         -0.31191  -0.14340   0.08410   0.00000  -0.16735
  33        2PX         0.00000   0.00000   0.00000  -0.22654   0.00000
  34        2PY         0.12477   0.09630  -0.29075   0.00000   0.51114
  35        2PZ         0.07823   0.24301  -0.01678   0.00000  -0.04123
  36        3S          0.30143  -0.58735   0.90790   0.00000  -0.19945
  37        3PX         0.00000   0.00000   0.00000  -0.05738   0.00000
  38        3PY        -0.02979  -0.57303   0.36570   0.00000  -1.08516
  39        3PZ        -0.10906  -0.11231   0.24609   0.00000  -0.21322
  40        4XX        -0.07318   0.00342  -0.00963   0.00000  -0.06314
  41        4YY        -0.15106  -0.19863   0.16308   0.00000  -0.12288
  42        4ZZ        -0.11168  -0.01412   0.03295   0.00000  -0.07622
  43        4XY         0.00000   0.00000   0.00000  -0.06097   0.00000
  44        4XZ         0.00000   0.00000   0.00000  -0.02145   0.00000
  45        4YZ        -0.07418  -0.04149   0.11053   0.00000  -0.01280
                          21        22        23        24        25
                        (B2)--V   (A2)--V   (A1)--V   (B1)--V   (B2)--V
     EIGENVALUES --     0.82018   0.87942   0.88908   0.93806   0.95244
   1 1   O  1S         -0.00458   0.00000  -0.00338   0.00000   0.00476
   2        2S         -0.38302   0.00000  -0.01509   0.00000   0.01707
   3        2PX         0.00000  -0.65333   0.00000  -0.61201   0.00000
   4        2PY        -0.35520   0.00000   0.14968   0.00000   0.33912
   5        2PZ         0.41254   0.00000   0.55557   0.00000   0.47032
   6        3S          0.80957   0.00000   0.39735   0.00000  -0.52219
   7        3PX         0.00000   0.81472   0.00000   1.01995   0.00000
   8        3PY         0.51391   0.00000  -0.30811   0.00000  -0.43420
   9        3PZ        -0.41560   0.00000  -0.92410   0.00000  -0.80550
  10        4XX        -0.13655   0.00000  -0.07125   0.00000   0.04451
  11        4YY        -0.12810   0.00000   0.00223   0.00000  -0.07112
  12        4ZZ        -0.15860   0.00000   0.01227   0.00000   0.07979
  13        4XY         0.00000   0.02989   0.00000   0.01607   0.00000
  14        4XZ         0.00000   0.00388   0.00000  -0.04893   0.00000
  15        4YZ        -0.00306   0.00000  -0.01251   0.00000  -0.04758
  16 2   N  1S          0.00000   0.00000   0.02349   0.00000   0.00000
  17        2S          0.00000   0.00000   0.26383   0.00000   0.00000
  18        2PX         0.00000   0.00000   0.00000   0.27990   0.00000
  19        2PY         0.17411   0.00000   0.00000   0.00000  -0.15813
  20        2PZ         0.00000   0.00000  -0.25236   0.00000   0.00000
  21        3S          0.00000   0.00000  -0.68947   0.00000   0.00000
  22        3PX         0.00000   0.00000   0.00000  -1.01465   0.00000
  23        3PY        -0.40191   0.00000   0.00000   0.00000   0.97747
  24        3PZ         0.00000   0.00000   1.08645   0.00000   0.00000
  25        4XX         0.00000   0.00000  -0.05111   0.00000   0.00000
  26        4YY         0.00000   0.00000   0.17667   0.00000   0.00000
  27        4ZZ         0.00000   0.00000   0.03574   0.00000   0.00000
  28        4XY         0.00000  -0.08715   0.00000   0.00000   0.00000
  29        4XZ         0.00000   0.00000   0.00000  -0.04043   0.00000
  30        4YZ        -0.13956   0.00000   0.00000   0.00000   0.15854
  31 3   O  1S          0.00458   0.00000  -0.00338   0.00000  -0.00476
  32        2S          0.38302   0.00000  -0.01509   0.00000  -0.01707
  33        2PX         0.00000   0.65333   0.00000  -0.61201   0.00000
  34        2PY        -0.35520   0.00000  -0.14968   0.00000   0.33912
  35        2PZ        -0.41254   0.00000   0.55557   0.00000  -0.47032
  36        3S         -0.80957   0.00000   0.39735   0.00000   0.52219
  37        3PX         0.00000  -0.81472   0.00000   1.01995   0.00000
  38        3PY         0.51391   0.00000   0.30811   0.00000  -0.43420
  39        3PZ         0.41560   0.00000  -0.92410   0.00000   0.80550
  40        4XX         0.13655   0.00000  -0.07125   0.00000  -0.04451
  41        4YY         0.12810   0.00000   0.00223   0.00000   0.07112
  42        4ZZ         0.15860   0.00000   0.01227   0.00000  -0.07979
  43        4XY         0.00000   0.02989   0.00000  -0.01607   0.00000
  44        4XZ         0.00000  -0.00388   0.00000  -0.04893   0.00000
  45        4YZ        -0.00306   0.00000   0.01251   0.00000  -0.04758
                          26        27        28        29        30
                        (A1)--V   (A2)--V   (B2)--V   (B1)--V   (A1)--V
     EIGENVALUES --     1.27313   1.37164   1.38997   1.39938   1.46790
   1 1   O  1S          0.06337   0.00000  -0.06485   0.00000   0.03559
   2        2S          0.95256   0.00000  -1.19323   0.00000   0.70037
   3        2PX         0.00000  -0.13956   0.00000   0.01689   0.00000
   4        2PY        -0.12251   0.00000   0.25222   0.00000  -0.12095
   5        2PZ         0.04070   0.00000  -0.15890   0.00000   0.08993
   6        3S         -3.40605   0.00000   4.27872   0.00000  -2.41738
   7        3PX         0.00000  -0.05818   0.00000   0.13428   0.00000
   8        3PY         1.35908   0.00000  -1.40496   0.00000   1.07392
   9        3PZ        -0.40106   0.00000   0.99532   0.00000  -0.17415
  10        4XX         0.46825   0.00000  -0.10679   0.00000   0.00009
  11        4YY         0.17706   0.00000  -0.35202   0.00000   0.37195
  12        4ZZ         0.11652   0.00000  -0.41697   0.00000   0.08830
  13        4XY         0.00000  -0.31643   0.00000   0.30815   0.00000
  14        4XZ         0.00000   0.26361   0.00000   0.24688   0.00000
  15        4YZ        -0.12623   0.00000   0.08951   0.00000   0.27436
  16 2   N  1S         -0.01060   0.00000   0.00000   0.00000   0.00278
  17        2S         -0.60319   0.00000   0.00000   0.00000  -0.45075
  18        2PX         0.00000   0.00000   0.00000   0.16363   0.00000
  19        2PY         0.00000   0.00000   0.18251   0.00000   0.00000
  20        2PZ        -0.07992   0.00000   0.00000   0.00000   0.18823
  21        3S          4.65406   0.00000   0.00000   0.00000   3.33497
  22        3PX         0.00000   0.00000   0.00000  -0.17393   0.00000
  23        3PY         0.00000   0.00000  -3.52619   0.00000   0.00000
  24        3PZ        -1.22864   0.00000   0.00000   0.00000  -1.06948
  25        4XX         0.22912   0.00000   0.00000   0.00000  -0.41564
  26        4YY         0.13604   0.00000   0.00000   0.00000  -0.04816
  27        4ZZ        -0.45517   0.00000   0.00000   0.00000   0.48819
  28        4XY         0.00000   0.58063   0.00000   0.00000   0.00000
  29        4XZ         0.00000   0.00000   0.00000   0.70482   0.00000
  30        4YZ         0.00000   0.00000   0.09196   0.00000   0.00000
  31 3   O  1S          0.06337   0.00000   0.06485   0.00000   0.03559
  32        2S          0.95256   0.00000   1.19323   0.00000   0.70037
  33        2PX         0.00000   0.13956   0.00000   0.01689   0.00000
  34        2PY         0.12251   0.00000   0.25222   0.00000   0.12095
  35        2PZ         0.04070   0.00000   0.15890   0.00000   0.08993
  36        3S         -3.40605   0.00000  -4.27872   0.00000  -2.41738
  37        3PX         0.00000   0.05818   0.00000   0.13428   0.00000
  38        3PY        -1.35908   0.00000  -1.40496   0.00000  -1.07392
  39        3PZ        -0.40106   0.00000  -0.99532   0.00000  -0.17415
  40        4XX         0.46825   0.00000   0.10679   0.00000   0.00009
  41        4YY         0.17706   0.00000   0.35202   0.00000   0.37195
  42        4ZZ         0.11652   0.00000   0.41697   0.00000   0.08830
  43        4XY         0.00000  -0.31643   0.00000  -0.30815   0.00000
  44        4XZ         0.00000  -0.26361   0.00000   0.24688   0.00000
  45        4YZ         0.12623   0.00000   0.08951   0.00000  -0.27436
                          31        32        33        34        35
                        (B2)--V   (A2)--V   (A1)--V   (B1)--V   (B2)--V
     EIGENVALUES --     1.71168   1.73081   1.81276   1.83224   1.83322
   1 1   O  1S          0.02042   0.00000   0.02039   0.00000   0.02647
   2        2S          0.29309   0.00000   0.25824   0.00000   0.05956
   3        2PX         0.00000   0.03951   0.00000  -0.08882   0.00000
   4        2PY         0.12976   0.00000   0.06007   0.00000   0.29168
   5        2PZ         0.04582   0.00000  -0.13800   0.00000   0.08996
   6        3S         -1.66857   0.00000  -1.42057   0.00000  -1.34610
   7        3PX         0.00000  -0.04644   0.00000   0.15835   0.00000
   8        3PY         0.44058   0.00000   0.62256   0.00000   0.20477
   9        3PZ        -0.43409   0.00000   0.03713   0.00000  -0.49915
  10        4XX         0.53227   0.00000  -0.49822   0.00000  -0.25718
  11        4YY         0.12132   0.00000  -0.00734   0.00000   0.39368
  12        4ZZ        -0.52369   0.00000   0.61155   0.00000  -0.07076
  13        4XY         0.00000   0.41583   0.00000  -0.13067   0.00000
  14        4XZ         0.00000   0.57329   0.00000   0.67451   0.00000
  15        4YZ        -0.14380   0.00000  -0.03249   0.00000   0.48035
  16 2   N  1S          0.00000   0.00000  -0.04337   0.00000   0.00000
  17        2S          0.00000   0.00000  -0.40671   0.00000   0.00000
  18        2PX         0.00000   0.00000   0.00000  -0.15352   0.00000
  19        2PY        -0.01651   0.00000   0.00000   0.00000   0.10764
  20        2PZ         0.00000   0.00000  -0.08261   0.00000   0.00000
  21        3S          0.00000   0.00000   2.40248   0.00000   0.00000
  22        3PX         0.00000   0.00000   0.00000  -0.21330   0.00000
  23        3PY         1.81919   0.00000   0.00000   0.00000   1.76702
  24        3PZ         0.00000   0.00000  -0.92535   0.00000   0.00000
  25        4XX         0.00000   0.00000  -0.10188   0.00000   0.00000
  26        4YY         0.00000   0.00000   0.26858   0.00000   0.00000
  27        4ZZ         0.00000   0.00000  -0.34398   0.00000   0.00000
  28        4XY         0.00000  -0.00877   0.00000   0.00000   0.00000
  29        4XZ         0.00000   0.00000   0.00000  -0.31938   0.00000
  30        4YZ        -0.35530   0.00000   0.00000   0.00000  -0.41669
  31 3   O  1S         -0.02042   0.00000   0.02039   0.00000  -0.02647
  32        2S         -0.29309   0.00000   0.25824   0.00000  -0.05956
  33        2PX         0.00000  -0.03951   0.00000  -0.08882   0.00000
  34        2PY         0.12976   0.00000  -0.06007   0.00000   0.29168
  35        2PZ        -0.04582   0.00000  -0.13800   0.00000  -0.08996
  36        3S          1.66857   0.00000  -1.42057   0.00000   1.34610
  37        3PX         0.00000   0.04644   0.00000   0.15835   0.00000
  38        3PY         0.44058   0.00000  -0.62256   0.00000   0.20477
  39        3PZ         0.43409   0.00000   0.03713   0.00000   0.49915
  40        4XX        -0.53227   0.00000  -0.49822   0.00000   0.25718
  41        4YY        -0.12132   0.00000  -0.00734   0.00000  -0.39368
  42        4ZZ         0.52369   0.00000   0.61155   0.00000   0.07076
  43        4XY         0.00000   0.41583   0.00000   0.13067   0.00000
  44        4XZ         0.00000  -0.57329   0.00000   0.67451   0.00000
  45        4YZ        -0.14380   0.00000   0.03249   0.00000   0.48035
                          36        37        38        39        40
                        (A1)--V   (B1)--V   (B2)--V   (A1)--V   (A2)--V
     EIGENVALUES --     2.19681   2.32464   2.64127   2.69436   2.70379
   1 1   O  1S          0.00377   0.00000   0.01523   0.05113   0.00000
   2        2S         -0.02941   0.00000   0.35491   0.60738   0.00000
   3        2PX         0.00000  -0.06530   0.00000   0.00000  -0.06769
   4        2PY         0.22463   0.00000  -0.35535  -0.02465   0.00000
   5        2PZ        -0.17097   0.00000   0.10491   0.01418   0.00000
   6        3S         -0.83282   0.00000  -0.36277  -2.40118   0.00000
   7        3PX         0.00000   0.42545   0.00000   0.00000  -0.28561
   8        3PY         0.33815   0.00000   0.06539   1.41958   0.00000
   9        3PZ         0.20519   0.00000  -0.27859  -0.11653   0.00000
  10        4XX         0.11710   0.00000   0.20245   0.45666   0.00000
  11        4YY        -0.10927   0.00000   0.50860  -0.83188   0.00000
  12        4ZZ        -0.13749   0.00000  -0.35795   0.60934   0.00000
  13        4XY         0.00000  -0.73762   0.00000   0.00000   0.64595
  14        4XZ         0.00000   0.03324   0.00000   0.00000  -0.40345
  15        4YZ        -0.43748   0.00000   0.34897   0.04946   0.00000
  16 2   N  1S         -0.09415   0.00000   0.00000   0.10039   0.00000
  17        2S         -0.44344   0.00000   0.00000   0.13756   0.00000
  18        2PX         0.00000  -0.18663   0.00000   0.00000   0.00000
  19        2PY         0.00000   0.00000  -0.06873   0.00000   0.00000
  20        2PZ         0.00141   0.00000   0.00000  -0.49835   0.00000
  21        3S          2.02374   0.00000   0.00000   2.79303   0.00000
  22        3PX         0.00000  -0.62397   0.00000   0.00000   0.00000
  23        3PY         0.00000   0.00000  -0.02474   0.00000   0.00000
  24        3PZ        -0.94074   0.00000   0.00000  -1.34457   0.00000
  25        4XX        -1.08534   0.00000   0.00000   0.08110   0.00000
  26        4YY         0.37246   0.00000   0.00000   0.19081   0.00000
  27        4ZZ         0.18408   0.00000   0.00000   0.97737   0.00000
  28        4XY         0.00000   0.00000   0.00000   0.00000   1.16186
  29        4XZ         0.00000   0.75678   0.00000   0.00000   0.00000
  30        4YZ         0.00000   0.00000   1.22267   0.00000   0.00000
  31 3   O  1S          0.00377   0.00000  -0.01523   0.05113   0.00000
  32        2S         -0.02941   0.00000  -0.35491   0.60738   0.00000
  33        2PX         0.00000  -0.06530   0.00000   0.00000   0.06769
  34        2PY        -0.22463   0.00000  -0.35535   0.02465   0.00000
  35        2PZ        -0.17097   0.00000  -0.10491   0.01418   0.00000
  36        3S         -0.83282   0.00000   0.36277  -2.40118   0.00000
  37        3PX         0.00000   0.42545   0.00000   0.00000   0.28561
  38        3PY        -0.33815   0.00000   0.06539  -1.41958   0.00000
  39        3PZ         0.20519   0.00000   0.27859  -0.11653   0.00000
  40        4XX         0.11710   0.00000  -0.20245   0.45666   0.00000
  41        4YY        -0.10927   0.00000  -0.50860  -0.83188   0.00000
  42        4ZZ        -0.13749   0.00000   0.35795   0.60934   0.00000
  43        4XY         0.00000   0.73762   0.00000   0.00000   0.64595
  44        4XZ         0.00000   0.03324   0.00000   0.00000   0.40345
  45        4YZ         0.43748   0.00000   0.34897  -0.04946   0.00000
                          41        42        43        44        45
                        (B2)--V   (A1)--V   (A1)--V   (B2)--V   (A1)--V
     EIGENVALUES --     2.77148   2.85840   3.40621   3.62593   3.70464
   1 1   O  1S         -0.00484  -0.01363  -0.24904  -0.37467   0.25456
   2        2S         -0.66168   0.34583   0.16108  -0.20884   0.23781
   3        2PX         0.00000   0.00000   0.00000   0.00000   0.00000
   4        2PY        -0.07585   0.23254  -0.22309   0.13917  -0.37040
   5        2PZ        -0.00533  -0.16599   0.13452  -0.08287   0.17642
   6        3S          2.30559  -1.56929   2.84400   4.74122  -3.00886
   7        3PX         0.00000   0.00000   0.00000   0.00000   0.00000
   8        3PY        -1.22564   0.95435  -0.95102  -1.14719   0.63544
   9        3PZ         0.66628  -0.45648   0.40948   0.71945   0.03012
  10        4XX        -0.40354   0.20044  -0.92515  -1.38131   0.78998
  11        4YY         0.84094  -0.54308  -0.48236  -0.99889   0.90848
  12        4ZZ        -0.16005  -0.18137  -0.70308  -1.22060   1.04567
  13        4XY         0.00000   0.00000   0.00000   0.00000   0.00000
  14        4XZ         0.00000   0.00000   0.00000   0.00000   0.00000
  15        4YZ        -0.57363   0.72468  -0.44611  -0.18335  -0.26849
  16 2   N  1S          0.00000  -0.15762  -0.21363   0.00000  -0.32953
  17        2S          0.00000   1.08570   0.75555   0.00000   0.60357
  18        2PX         0.00000   0.00000   0.00000   0.00000   0.00000
  19        2PY        -1.18098   0.00000   0.00000  -0.02029   0.00000
  20        2PZ         0.00000  -0.34642   0.16023   0.00000   0.20564
  21        3S          0.00000   3.12215  -2.05927   0.00000   3.72098
  22        3PX         0.00000   0.00000   0.00000   0.00000   0.00000
  23        3PY        -1.92244   0.00000   0.00000  -2.56571   0.00000
  24        3PZ         0.00000  -0.53806   0.62680   0.00000  -0.90533
  25        4XX         0.00000  -0.91501  -0.40264   0.00000  -1.00958
  26        4YY         0.00000   0.85449  -1.61044   0.00000  -1.78215
  27        4ZZ         0.00000  -0.95015  -0.44021   0.00000  -0.82522
  28        4XY         0.00000   0.00000   0.00000   0.00000   0.00000
  29        4XZ         0.00000   0.00000   0.00000   0.00000   0.00000
  30        4YZ         0.50933   0.00000   0.00000   0.08688   0.00000
  31 3   O  1S          0.00484  -0.01363  -0.24904   0.37467   0.25456
  32        2S          0.66168   0.34583   0.16108   0.20884   0.23781
  33        2PX         0.00000   0.00000   0.00000   0.00000   0.00000
  34        2PY        -0.07585  -0.23254   0.22309   0.13917   0.37040
  35        2PZ         0.00533  -0.16599   0.13452   0.08287   0.17642
  36        3S         -2.30559  -1.56929   2.84400  -4.74122  -3.00886
  37        3PX         0.00000   0.00000   0.00000   0.00000   0.00000
  38        3PY        -1.22564  -0.95435   0.95102  -1.14719  -0.63544
  39        3PZ        -0.66628  -0.45648   0.40948  -0.71945   0.03012
  40        4XX         0.40354   0.20044  -0.92515   1.38131   0.78998
  41        4YY        -0.84094  -0.54308  -0.48236   0.99889   0.90848
  42        4ZZ         0.16005  -0.18137  -0.70308   1.22060   1.04567
  43        4XY         0.00000   0.00000   0.00000   0.00000   0.00000
  44        4XZ         0.00000   0.00000   0.00000   0.00000   0.00000
  45        4YZ        -0.57363  -0.72468   0.44611  -0.18335   0.26849
     Beta Molecular Orbital Coefficients.
                           1         2         3         4         5
                        (B2)--O   (A1)--O   (A1)--O   (A1)--O   (B2)--O
     EIGENVALUES --   -19.25673 -19.25671 -14.57653  -1.26315  -1.11483
   1 1   O  1S          0.70212   0.70214  -0.00001  -0.11349  -0.14348
   2        2S          0.01824   0.01836   0.00039   0.25474   0.32070
   3        2PX         0.00000   0.00000   0.00000   0.00000   0.00000
   4        2PY        -0.00095  -0.00101  -0.00003  -0.12983  -0.11368
   5        2PZ         0.00030   0.00042   0.00000   0.03893   0.05391
   6        3S          0.00849   0.00807  -0.00134   0.19101   0.30224
   7        3PX         0.00000   0.00000   0.00000   0.00000   0.00000
   8        3PY        -0.00084  -0.00102   0.00062  -0.04832  -0.04884
   9        3PZ         0.00052   0.00037  -0.00031   0.01393   0.02833
  10        4XX        -0.00541  -0.00538   0.00026  -0.00372  -0.00547
  11        4YY        -0.00502  -0.00501  -0.00035   0.02067   0.00564
  12        4ZZ        -0.00550  -0.00528   0.00016  -0.00621  -0.00349
  13        4XY         0.00000   0.00000   0.00000   0.00000   0.00000
  14        4XZ         0.00000   0.00000   0.00000   0.00000   0.00000
  15        4YZ        -0.00005  -0.00032   0.00029  -0.00860  -0.01069
  16 2   N  1S          0.00000   0.00013   0.99298  -0.15502   0.00000
  17        2S          0.00000   0.00081   0.03408   0.34558   0.00000
  18        2PX         0.00000   0.00000   0.00000   0.00000   0.00000
  19        2PY         0.00014   0.00000   0.00000   0.00000   0.32773
  20        2PZ         0.00000   0.00002  -0.00158  -0.11952   0.00000
  21        3S          0.00000  -0.00461   0.00427   0.13148   0.00000
  22        3PX         0.00000   0.00000   0.00000   0.00000   0.00000
  23        3PY        -0.00292   0.00000   0.00000   0.00000   0.00102
  24        3PZ         0.00000   0.00117   0.00004  -0.00502   0.00000
  25        4XX         0.00000   0.00035  -0.00790  -0.01530   0.00000
  26        4YY         0.00000  -0.00114  -0.00695   0.02526   0.00000
  27        4ZZ         0.00000   0.00015  -0.00789  -0.00977   0.00000
  28        4XY         0.00000   0.00000   0.00000   0.00000   0.00000
  29        4XZ         0.00000   0.00000   0.00000   0.00000   0.00000
  30        4YZ         0.00068   0.00000   0.00000   0.00000  -0.03227
  31 3   O  1S         -0.70212   0.70214  -0.00001  -0.11349   0.14348
  32        2S         -0.01824   0.01836   0.00039   0.25474  -0.32070
  33        2PX         0.00000   0.00000   0.00000   0.00000   0.00000
  34        2PY        -0.00095   0.00101   0.00003   0.12983  -0.11368
  35        2PZ        -0.00030   0.00042   0.00000   0.03893  -0.05391
  36        3S         -0.00849   0.00807  -0.00134   0.19101  -0.30224
  37        3PX         0.00000   0.00000   0.00000   0.00000   0.00000
  38        3PY        -0.00084   0.00102  -0.00062   0.04832  -0.04884
  39        3PZ        -0.00052   0.00037  -0.00031   0.01393  -0.02833
  40        4XX         0.00541  -0.00538   0.00026  -0.00372   0.00547
  41        4YY         0.00502  -0.00501  -0.00035   0.02067  -0.00564
  42        4ZZ         0.00550  -0.00528   0.00016  -0.00621   0.00349
  43        4XY         0.00000   0.00000   0.00000   0.00000   0.00000
  44        4XZ         0.00000   0.00000   0.00000   0.00000   0.00000
  45        4YZ        -0.00005   0.00032  -0.00029   0.00860  -0.01069
                           6         7         8         9        10
                        (A1)--O   (B1)--O   (B2)--O   (A1)--O   (A2)--O
     EIGENVALUES --    -0.64488  -0.55405  -0.54824  -0.52978  -0.36984
   1 1   O  1S         -0.11848   0.00000   0.08064  -0.01323   0.00000
   2        2S          0.26205   0.00000  -0.17089   0.02035   0.00000
   3        2PX         0.00000   0.31575   0.00000   0.00000   0.47919
   4        2PY         0.22662   0.00000  -0.31465   0.20027   0.00000
   5        2PZ        -0.10347   0.00000   0.18135   0.24645   0.00000
   6        3S          0.41898   0.00000  -0.31724   0.06483   0.00000
   7        3PX         0.00000   0.17229   0.00000   0.00000   0.32877
   8        3PY         0.08992   0.00000  -0.15144   0.10556   0.00000
   9        3PZ        -0.04892   0.00000   0.09229   0.14276   0.00000
  10        4XX         0.00132   0.00000  -0.00260   0.00051   0.00000
  11        4YY        -0.02242   0.00000   0.01794  -0.02290   0.00000
  12        4ZZ        -0.00889   0.00000   0.00946   0.01344   0.00000
  13        4XY         0.00000  -0.02835   0.00000   0.00000  -0.02015
  14        4XZ         0.00000   0.01089   0.00000   0.00000   0.00820
  15        4YZ         0.01367   0.00000  -0.01590  -0.01600   0.00000
  16 2   N  1S          0.12883   0.00000   0.00000  -0.04355   0.00000
  17        2S         -0.32410   0.00000   0.00000   0.08781   0.00000
  18        2PX         0.00000   0.45856   0.00000   0.00000   0.00000
  19        2PY         0.00000   0.00000   0.37000   0.00000   0.00000
  20        2PZ        -0.00637   0.00000   0.00000   0.43185   0.00000
  21        3S         -0.34804   0.00000   0.00000   0.16507   0.00000
  22        3PX         0.00000   0.22280   0.00000   0.00000   0.00000
  23        3PY         0.00000   0.00000   0.09148   0.00000   0.00000
  24        3PZ         0.00158   0.00000   0.00000   0.20810   0.00000
  25        4XX        -0.00013   0.00000   0.00000   0.00591   0.00000
  26        4YY         0.01201   0.00000   0.00000   0.02827   0.00000
  27        4ZZ         0.00905   0.00000   0.00000  -0.04052   0.00000
  28        4XY         0.00000   0.00000   0.00000   0.00000   0.05094
  29        4XZ         0.00000  -0.02646   0.00000   0.00000   0.00000
  30        4YZ         0.00000   0.00000  -0.01081   0.00000   0.00000
  31 3   O  1S         -0.11848   0.00000  -0.08064  -0.01323   0.00000
  32        2S          0.26205   0.00000   0.17089   0.02035   0.00000
  33        2PX         0.00000   0.31575   0.00000   0.00000  -0.47919
  34        2PY        -0.22662   0.00000  -0.31465  -0.20027   0.00000
  35        2PZ        -0.10347   0.00000  -0.18135   0.24645   0.00000
  36        3S          0.41898   0.00000   0.31724   0.06483   0.00000
  37        3PX         0.00000   0.17229   0.00000   0.00000  -0.32877
  38        3PY        -0.08992   0.00000  -0.15144  -0.10556   0.00000
  39        3PZ        -0.04892   0.00000  -0.09229   0.14276   0.00000
  40        4XX         0.00132   0.00000   0.00260   0.00051   0.00000
  41        4YY        -0.02242   0.00000  -0.01794  -0.02290   0.00000
  42        4ZZ        -0.00889   0.00000  -0.00946   0.01344   0.00000
  43        4XY         0.00000   0.02835   0.00000   0.00000  -0.02015
  44        4XZ         0.00000   0.01089   0.00000   0.00000  -0.00820
  45        4YZ        -0.01367   0.00000  -0.01590   0.01600   0.00000
                          11        12        13        14        15
                        (B2)--O   (A1)--V   (B1)--V   (A1)--V   (B2)--V
     EIGENVALUES --    -0.34101  -0.14316  -0.07381   0.22363   0.39522
   1 1   O  1S          0.00533   0.01744   0.00000   0.07585   0.08304
   2        2S         -0.01061  -0.06578   0.00000  -0.19818  -0.20382
   3        2PX         0.00000   0.00000  -0.38594   0.00000   0.00000
   4        2PY         0.26949   0.05245   0.00000   0.38813   0.12843
   5        2PZ         0.40301  -0.39262   0.00000   0.00957  -0.21641
   6        3S         -0.08279  -0.08939   0.00000  -0.91502  -1.68957
   7        3PX         0.00000   0.00000  -0.35665   0.00000   0.00000
   8        3PY         0.20417   0.04748   0.00000   0.75968   0.86414
   9        3PZ         0.26065  -0.33748   0.00000  -0.04997  -0.64690
  10        4XX         0.00222  -0.00476   0.00000   0.00525  -0.00929
  11        4YY        -0.01486  -0.01232   0.00000   0.00497  -0.03479
  12        4ZZ         0.01528  -0.00104   0.00000  -0.01727   0.01525
  13        4XY         0.00000   0.00000  -0.01047   0.00000   0.00000
  14        4XZ         0.00000   0.00000   0.00767   0.00000   0.00000
  15        4YZ        -0.01328   0.00263   0.00000   0.01110   0.00063
  16 2   N  1S          0.00000  -0.07561   0.00000  -0.12414   0.00000
  17        2S          0.00000   0.11982   0.00000   0.23545   0.00000
  18        2PX         0.00000   0.00000   0.57430   0.00000   0.00000
  19        2PY         0.00695   0.00000   0.00000   0.00000   0.52959
  20        2PZ         0.00000   0.41505   0.00000  -0.42246   0.00000
  21        3S          0.00000   0.62956   0.00000   2.05115   0.00000
  22        3PX         0.00000   0.00000   0.47810   0.00000   0.00000
  23        3PY         0.12337   0.00000   0.00000   0.00000   2.55649
  24        3PZ         0.00000   0.24822   0.00000  -0.87608   0.00000
  25        4XX         0.00000   0.00467   0.00000   0.02114   0.00000
  26        4YY         0.00000  -0.05097   0.00000  -0.07244   0.00000
  27        4ZZ         0.00000  -0.00095   0.00000  -0.00598   0.00000
  28        4XY         0.00000   0.00000   0.00000   0.00000   0.00000
  29        4XZ         0.00000   0.00000   0.00258   0.00000   0.00000
  30        4YZ         0.04219   0.00000   0.00000   0.00000   0.00400
  31 3   O  1S         -0.00533   0.01744   0.00000   0.07585  -0.08304
  32        2S          0.01061  -0.06578   0.00000  -0.19818   0.20382
  33        2PX         0.00000   0.00000  -0.38594   0.00000   0.00000
  34        2PY         0.26949  -0.05245   0.00000  -0.38813   0.12843
  35        2PZ        -0.40301  -0.39262   0.00000   0.00957   0.21641
  36        3S          0.08279  -0.08939   0.00000  -0.91502   1.68957
  37        3PX         0.00000   0.00000  -0.35665   0.00000   0.00000
  38        3PY         0.20417  -0.04748   0.00000  -0.75968   0.86414
  39        3PZ        -0.26065  -0.33748   0.00000  -0.04997   0.64690
  40        4XX        -0.00222  -0.00476   0.00000   0.00525   0.00929
  41        4YY         0.01486  -0.01232   0.00000   0.00497   0.03479
  42        4ZZ        -0.01528  -0.00104   0.00000  -0.01727  -0.01525
  43        4XY         0.00000   0.00000   0.01047   0.00000   0.00000
  44        4XZ         0.00000   0.00000   0.00767   0.00000   0.00000
  45        4YZ        -0.01328  -0.00263   0.00000  -0.01110   0.00063
                          16        17        18        19        20
                        (A1)--V   (B2)--V   (B1)--V   (A1)--V   (A1)--V
     EIGENVALUES --     0.59691   0.59884   0.61970   0.62072   0.78562
   1 1   O  1S         -0.00493  -0.01144   0.00000  -0.01309   0.01579
   2        2S         -0.33910  -0.07245   0.00000  -0.06566  -0.16936
   3        2PX         0.00000   0.00000  -0.23026   0.00000   0.00000
   4        2PY        -0.16097  -0.28916   0.00000   0.02012  -0.51545
   5        2PZ         0.19347   0.01603   0.00000  -0.15923  -0.04897
   6        3S         -0.06645  -0.84602   0.00000   0.69212  -0.19583
   7        3PX         0.00000   0.00000  -0.05102   0.00000   0.00000
   8        3PY         0.33651   0.32155   0.00000  -0.48463   1.08360
   9        3PZ        -0.11180  -0.20612   0.00000   0.05491  -0.20338
  10        4XX        -0.05876   0.01209   0.00000  -0.04875  -0.06513
  11        4YY        -0.23810  -0.16040   0.00000   0.08504  -0.12320
  12        4ZZ        -0.10136  -0.03347   0.00000  -0.05521  -0.07712
  13        4XY         0.00000   0.00000   0.06152   0.00000   0.00000
  14        4XZ         0.00000   0.00000  -0.02069   0.00000   0.00000
  15        4YZ         0.08356   0.11040   0.00000   0.00811   0.01649
  16 2   N  1S          0.01499   0.00000   0.00000   0.00417   0.04106
  17        2S         -1.03531   0.00000   0.00000  -0.41007   0.32970
  18        2PX         0.00000   0.00000  -0.85239   0.00000   0.00000
  19        2PY         0.00000  -0.81076   0.00000   0.00000   0.00000
  20        2PZ         0.15705   0.00000   0.00000  -0.76940  -0.21916
  21        3S          2.19669   0.00000   0.00000  -0.48445   0.90474
  22        3PX         0.00000   0.00000   1.18735   0.00000   0.00000
  23        3PY         0.00000   2.03484   0.00000   0.00000   0.00000
  24        3PZ        -0.60361   0.00000   0.00000   1.45007  -0.18467
  25        4XX        -0.18475   0.00000   0.00000  -0.08065  -0.03130
  26        4YY        -0.04196   0.00000   0.00000  -0.26604   0.33751
  27        4ZZ        -0.19730   0.00000   0.00000  -0.03675   0.06934
  28        4XY         0.00000   0.00000   0.00000   0.00000   0.00000
  29        4XZ         0.00000   0.00000   0.04548   0.00000   0.00000
  30        4YZ         0.00000  -0.12487   0.00000   0.00000   0.00000
  31 3   O  1S         -0.00493   0.01144   0.00000  -0.01309   0.01579
  32        2S         -0.33910   0.07245   0.00000  -0.06566  -0.16936
  33        2PX         0.00000   0.00000  -0.23026   0.00000   0.00000
  34        2PY         0.16097  -0.28916   0.00000  -0.02012   0.51545
  35        2PZ         0.19347  -0.01603   0.00000  -0.15923  -0.04897
  36        3S         -0.06645   0.84602   0.00000   0.69212  -0.19583
  37        3PX         0.00000   0.00000  -0.05102   0.00000   0.00000
  38        3PY        -0.33651   0.32155   0.00000   0.48463  -1.08360
  39        3PZ        -0.11180   0.20612   0.00000   0.05491  -0.20338
  40        4XX        -0.05876  -0.01209   0.00000  -0.04875  -0.06513
  41        4YY        -0.23810   0.16040   0.00000   0.08504  -0.12320
  42        4ZZ        -0.10136   0.03347   0.00000  -0.05521  -0.07712
  43        4XY         0.00000   0.00000  -0.06152   0.00000   0.00000
  44        4XZ         0.00000   0.00000  -0.02069   0.00000   0.00000
  45        4YZ        -0.08356   0.11040   0.00000  -0.00811  -0.01649
                          21        22        23        24        25
                        (B2)--V   (A2)--V   (A1)--V   (B1)--V   (B2)--V
     EIGENVALUES --     0.83806   0.88373   0.91475   0.94466   0.96907
   1 1   O  1S         -0.00754   0.00000  -0.00521   0.00000   0.00185
   2        2S         -0.38874   0.00000  -0.03683   0.00000  -0.03086
   3        2PX         0.00000  -0.65525   0.00000   0.61241   0.00000
   4        2PY        -0.39003   0.00000   0.14082   0.00000   0.31234
   5        2PZ         0.38487   0.00000   0.56812   0.00000   0.50832
   6        3S          0.90802   0.00000   0.44240   0.00000  -0.36971
   7        3PX         0.00000   0.81350   0.00000  -1.02062   0.00000
   8        3PY         0.52324   0.00000  -0.30918   0.00000  -0.42179
   9        3PZ        -0.32488   0.00000  -0.91883   0.00000  -0.80942
  10        4XX        -0.14139   0.00000  -0.07730   0.00000   0.03340
  11        4YY        -0.12897   0.00000  -0.00846   0.00000  -0.08788
  12        4ZZ        -0.16747   0.00000   0.00472   0.00000   0.05779
  13        4XY         0.00000   0.03000   0.00000  -0.01698   0.00000
  14        4XZ         0.00000   0.00597   0.00000   0.04575   0.00000
  15        4YZ         0.00410   0.00000  -0.00847   0.00000  -0.04763
  16 2   N  1S          0.00000   0.00000   0.02518   0.00000   0.00000
  17        2S          0.00000   0.00000   0.23712   0.00000   0.00000
  18        2PX         0.00000   0.00000   0.00000  -0.28500   0.00000
  19        2PY         0.16222   0.00000   0.00000   0.00000  -0.15090
  20        2PZ         0.00000   0.00000  -0.26563   0.00000   0.00000
  21        3S          0.00000   0.00000  -0.68027   0.00000   0.00000
  22        3PX         0.00000   0.00000   0.00000   1.02268   0.00000
  23        3PY        -0.53220   0.00000   0.00000   0.00000   0.86713
  24        3PZ         0.00000   0.00000   1.09659   0.00000   0.00000
  25        4XX         0.00000   0.00000  -0.06164   0.00000   0.00000
  26        4YY         0.00000   0.00000   0.18413   0.00000   0.00000
  27        4ZZ         0.00000   0.00000   0.02480   0.00000   0.00000
  28        4XY         0.00000  -0.08774   0.00000   0.00000   0.00000
  29        4XZ         0.00000   0.00000   0.00000   0.03625   0.00000
  30        4YZ        -0.15034   0.00000   0.00000   0.00000   0.14516
  31 3   O  1S          0.00754   0.00000  -0.00521   0.00000  -0.00185
  32        2S          0.38874   0.00000  -0.03683   0.00000   0.03086
  33        2PX         0.00000   0.65525   0.00000   0.61241   0.00000
  34        2PY        -0.39003   0.00000  -0.14082   0.00000   0.31234
  35        2PZ        -0.38487   0.00000   0.56812   0.00000  -0.50832
  36        3S         -0.90802   0.00000   0.44240   0.00000   0.36971
  37        3PX         0.00000  -0.81350   0.00000  -1.02062   0.00000
  38        3PY         0.52324   0.00000   0.30918   0.00000  -0.42179
  39        3PZ         0.32488   0.00000  -0.91883   0.00000   0.80942
  40        4XX         0.14139   0.00000  -0.07730   0.00000  -0.03340
  41        4YY         0.12897   0.00000  -0.00846   0.00000   0.08788
  42        4ZZ         0.16747   0.00000   0.00472   0.00000  -0.05779
  43        4XY         0.00000   0.03000   0.00000   0.01698   0.00000
  44        4XZ         0.00000  -0.00597   0.00000   0.04575   0.00000
  45        4YZ         0.00410   0.00000   0.00847   0.00000  -0.04763
                          26        27        28        29        30
                        (A1)--V   (A2)--V   (B2)--V   (B1)--V   (A1)--V
     EIGENVALUES --     1.28885   1.37681   1.40282   1.42015   1.48851
   1 1   O  1S          0.06490   0.00000  -0.06458   0.00000   0.03410
   2        2S          0.97705   0.00000  -1.19802   0.00000   0.66891
   3        2PX         0.00000  -0.13957   0.00000   0.01975   0.00000
   4        2PY        -0.13014   0.00000   0.24915   0.00000  -0.11105
   5        2PZ         0.05172   0.00000  -0.17540   0.00000   0.08823
   6        3S         -3.48971   0.00000   4.30226   0.00000  -2.32326
   7        3PX         0.00000  -0.05891   0.00000   0.12302   0.00000
   8        3PY         1.39664   0.00000  -1.40454   0.00000   1.03027
   9        3PZ        -0.41298   0.00000   1.01637   0.00000  -0.16413
  10        4XX         0.47492   0.00000  -0.11116   0.00000  -0.03648
  11        4YY         0.18933   0.00000  -0.35695   0.00000   0.37104
  12        4ZZ         0.11784   0.00000  -0.41293   0.00000   0.10288
  13        4XY         0.00000  -0.32158   0.00000   0.31472   0.00000
  14        4XZ         0.00000   0.25530   0.00000   0.25699   0.00000
  15        4YZ        -0.11478   0.00000   0.08445   0.00000   0.28019
  16 2   N  1S         -0.00920   0.00000   0.00000   0.00000  -0.00051
  17        2S         -0.62550   0.00000   0.00000   0.00000  -0.43302
  18        2PX         0.00000   0.00000   0.00000   0.17214   0.00000
  19        2PY         0.00000   0.00000   0.18759   0.00000   0.00000
  20        2PZ        -0.09206   0.00000   0.00000   0.00000   0.20470
  21        3S          4.77833   0.00000   0.00000   0.00000   3.21769
  22        3PX         0.00000   0.00000   0.00000  -0.16141   0.00000
  23        3PY         0.00000   0.00000  -3.55891   0.00000   0.00000
  24        3PZ        -1.24850   0.00000   0.00000   0.00000  -1.03716
  25        4XX         0.20684   0.00000   0.00000   0.00000  -0.42542
  26        4YY         0.12721   0.00000   0.00000   0.00000  -0.03890
  27        4ZZ        -0.43429   0.00000   0.00000   0.00000   0.48399
  28        4XY         0.00000   0.58183   0.00000   0.00000   0.00000
  29        4XZ         0.00000   0.00000   0.00000   0.69057   0.00000
  30        4YZ         0.00000   0.00000   0.09301   0.00000   0.00000
  31 3   O  1S          0.06490   0.00000   0.06458   0.00000   0.03410
  32        2S          0.97705   0.00000   1.19802   0.00000   0.66891
  33        2PX         0.00000   0.13957   0.00000   0.01975   0.00000
  34        2PY         0.13014   0.00000   0.24915   0.00000   0.11105
  35        2PZ         0.05172   0.00000   0.17540   0.00000   0.08823
  36        3S         -3.48971   0.00000  -4.30226   0.00000  -2.32326
  37        3PX         0.00000   0.05891   0.00000   0.12302   0.00000
  38        3PY        -1.39664   0.00000  -1.40454   0.00000  -1.03027
  39        3PZ        -0.41298   0.00000  -1.01637   0.00000  -0.16413
  40        4XX         0.47492   0.00000   0.11116   0.00000  -0.03648
  41        4YY         0.18933   0.00000   0.35695   0.00000   0.37104
  42        4ZZ         0.11784   0.00000   0.41293   0.00000   0.10288
  43        4XY         0.00000  -0.32158   0.00000  -0.31472   0.00000
  44        4XZ         0.00000  -0.25530   0.00000   0.25699   0.00000
  45        4YZ         0.11478   0.00000   0.08445   0.00000  -0.28019
                          31        32        33        34        35
                        (B2)--V   (A2)--V   (A1)--V   (B2)--V   (B1)--V
     EIGENVALUES --     1.72947   1.74228   1.83396   1.84258   1.85514
   1 1   O  1S          0.02094   0.00000   0.01790   0.02590   0.00000
   2        2S          0.28392   0.00000   0.24407   0.04908   0.00000
   3        2PX         0.00000   0.03924   0.00000   0.00000  -0.08758
   4        2PY         0.12423   0.00000   0.06480   0.29578   0.00000
   5        2PZ         0.04279   0.00000  -0.14360   0.09200   0.00000
   6        3S         -1.63254   0.00000  -1.35630  -1.31765   0.00000
   7        3PX         0.00000  -0.05083   0.00000   0.00000   0.16104
   8        3PY         0.43899   0.00000   0.59106   0.19300   0.00000
   9        3PZ        -0.42019   0.00000   0.04433  -0.49292   0.00000
  10        4XX         0.53945   0.00000  -0.49509  -0.25219   0.00000
  11        4YY         0.10806   0.00000  -0.01741   0.39386   0.00000
  12        4ZZ        -0.52254   0.00000   0.60458  -0.08575   0.00000
  13        4XY         0.00000   0.41564   0.00000   0.00000  -0.14486
  14        4XZ         0.00000   0.57416   0.00000   0.00000   0.67122
  15        4YZ        -0.14864   0.00000  -0.04905   0.47583   0.00000
  16 2   N  1S          0.00000   0.00000  -0.04279   0.00000   0.00000
  17        2S          0.00000   0.00000  -0.41077   0.00000   0.00000
  18        2PX         0.00000   0.00000   0.00000   0.00000  -0.16260
  19        2PY        -0.00840   0.00000   0.00000   0.10209   0.00000
  20        2PZ         0.00000   0.00000  -0.09705   0.00000   0.00000
  21        3S          0.00000   0.00000   2.32496   0.00000   0.00000
  22        3PX         0.00000   0.00000   0.00000   0.00000  -0.21992
  23        3PY         1.77259   0.00000   0.00000   1.75252   0.00000
  24        3PZ         0.00000   0.00000  -0.89863   0.00000   0.00000
  25        4XX         0.00000   0.00000  -0.09596   0.00000   0.00000
  26        4YY         0.00000   0.00000   0.27120   0.00000   0.00000
  27        4ZZ         0.00000   0.00000  -0.36496   0.00000   0.00000
  28        4XY         0.00000   0.00726   0.00000   0.00000   0.00000
  29        4XZ         0.00000   0.00000   0.00000   0.00000  -0.31964
  30        4YZ        -0.35317   0.00000   0.00000  -0.42119   0.00000
  31 3   O  1S         -0.02094   0.00000   0.01790  -0.02590   0.00000
  32        2S         -0.28392   0.00000   0.24407  -0.04908   0.00000
  33        2PX         0.00000  -0.03924   0.00000   0.00000  -0.08758
  34        2PY         0.12423   0.00000  -0.06480   0.29578   0.00000
  35        2PZ        -0.04279   0.00000  -0.14360  -0.09200   0.00000
  36        3S          1.63254   0.00000  -1.35630   1.31765   0.00000
  37        3PX         0.00000   0.05083   0.00000   0.00000   0.16104
  38        3PY         0.43899   0.00000  -0.59106   0.19300   0.00000
  39        3PZ         0.42019   0.00000   0.04433   0.49292   0.00000
  40        4XX        -0.53945   0.00000  -0.49509   0.25219   0.00000
  41        4YY        -0.10806   0.00000  -0.01741  -0.39386   0.00000
  42        4ZZ         0.52254   0.00000   0.60458   0.08575   0.00000
  43        4XY         0.00000   0.41564   0.00000   0.00000   0.14486
  44        4XZ         0.00000  -0.57416   0.00000   0.00000   0.67122
  45        4YZ        -0.14864   0.00000   0.04905   0.47583   0.00000
                          36        37        38        39        40
                        (A1)--V   (B1)--V   (B2)--V   (A1)--V   (A2)--V
     EIGENVALUES --     2.21394   2.33481   2.67004   2.71449   2.71471
   1 1   O  1S          0.00414   0.00000   0.01694   0.05053   0.00000
   2        2S         -0.02903   0.00000   0.33786   0.62423   0.00000
   3        2PX         0.00000  -0.06390   0.00000   0.00000  -0.06856
   4        2PY         0.22380   0.00000  -0.35426  -0.01427   0.00000
   5        2PZ        -0.17359   0.00000   0.10477   0.00856   0.00000
   6        3S         -0.83414   0.00000  -0.33231  -2.47052   0.00000
   7        3PX         0.00000   0.42349   0.00000   0.00000  -0.28454
   8        3PY         0.34019   0.00000   0.04365   1.45876   0.00000
   9        3PZ         0.20317   0.00000  -0.26831  -0.13714   0.00000
  10        4XX         0.12414   0.00000   0.19990   0.46238   0.00000
  11        4YY        -0.10934   0.00000   0.52654  -0.84938   0.00000
  12        4ZZ        -0.14324   0.00000  -0.35909   0.60515   0.00000
  13        4XY         0.00000  -0.73208   0.00000   0.00000   0.64351
  14        4XZ         0.00000   0.02767   0.00000   0.00000  -0.40752
  15        4YZ        -0.43280   0.00000   0.33906   0.08144   0.00000
  16 2   N  1S         -0.09429   0.00000   0.00000   0.09371   0.00000
  17        2S         -0.43253   0.00000   0.00000   0.18030   0.00000
  18        2PX         0.00000  -0.17919   0.00000   0.00000   0.00000
  19        2PY         0.00000   0.00000  -0.08514   0.00000   0.00000
  20        2PZ        -0.00105   0.00000   0.00000  -0.51030   0.00000
  21        3S          2.01893   0.00000   0.00000   2.92518   0.00000
  22        3PX         0.00000  -0.62159   0.00000   0.00000   0.00000
  23        3PY         0.00000   0.00000  -0.04986   0.00000   0.00000
  24        3PZ        -0.93478   0.00000   0.00000  -1.36306   0.00000
  25        4XX        -1.08958   0.00000   0.00000   0.04056   0.00000
  26        4YY         0.37349   0.00000   0.00000   0.22641   0.00000
  27        4ZZ         0.18569   0.00000   0.00000   0.94334   0.00000
  28        4XY         0.00000   0.00000   0.00000   0.00000   1.16122
  29        4XZ         0.00000   0.76964   0.00000   0.00000   0.00000
  30        4YZ         0.00000   0.00000   1.23173   0.00000   0.00000
  31 3   O  1S          0.00414   0.00000  -0.01694   0.05053   0.00000
  32        2S         -0.02903   0.00000  -0.33786   0.62423   0.00000
  33        2PX         0.00000  -0.06390   0.00000   0.00000   0.06856
  34        2PY        -0.22380   0.00000  -0.35426   0.01427   0.00000
  35        2PZ        -0.17359   0.00000  -0.10477   0.00856   0.00000
  36        3S         -0.83414   0.00000   0.33231  -2.47052   0.00000
  37        3PX         0.00000   0.42349   0.00000   0.00000   0.28454
  38        3PY        -0.34019   0.00000   0.04365  -1.45876   0.00000
  39        3PZ         0.20317   0.00000   0.26831  -0.13714   0.00000
  40        4XX         0.12414   0.00000  -0.19990   0.46238   0.00000
  41        4YY        -0.10934   0.00000  -0.52654  -0.84938   0.00000
  42        4ZZ        -0.14324   0.00000   0.35909   0.60515   0.00000
  43        4XY         0.00000   0.73208   0.00000   0.00000   0.64351
  44        4XZ         0.00000   0.02767   0.00000   0.00000   0.40752
  45        4YZ         0.43280   0.00000   0.33906  -0.08144   0.00000
                          41        42        43        44        45
                        (B2)--V   (A1)--V   (A1)--V   (B2)--V   (A1)--V
     EIGENVALUES --     2.78124   2.87524   3.42424   3.63843   3.72433
   1 1   O  1S         -0.00511  -0.01621  -0.25405  -0.37457   0.24927
   2        2S         -0.66708   0.32003   0.15892  -0.20411   0.23830
   3        2PX         0.00000   0.00000   0.00000   0.00000   0.00000
   4        2PY        -0.07078   0.23177  -0.21646   0.13785  -0.37482
   5        2PZ        -0.00781  -0.16784   0.13399  -0.08222   0.18023
   6        3S          2.30817  -1.45658   2.90042   4.73212  -2.94057
   7        3PX         0.00000   0.00000   0.00000   0.00000   0.00000
   8        3PY        -1.22341   0.88943  -0.96320  -1.14470   0.61152
   9        3PZ         0.67014  -0.44660   0.40921   0.71732   0.03956
  10        4XX        -0.40440   0.17852  -0.93984  -1.37901   0.76934
  11        4YY         0.82987  -0.50987  -0.49900  -0.99726   0.89922
  12        4ZZ        -0.15681  -0.20560  -0.72224  -1.22159   1.03196
  13        4XY         0.00000   0.00000   0.00000   0.00000   0.00000
  14        4XZ         0.00000   0.00000   0.00000   0.00000   0.00000
  15        4YZ        -0.58292   0.72159  -0.44317  -0.18278  -0.27810
  16 2   N  1S          0.00000  -0.16221  -0.20664   0.00000  -0.33368
  17        2S          0.00000   1.08356   0.74388   0.00000   0.62136
  18        2PX         0.00000   0.00000   0.00000   0.00000   0.00000
  19        2PY        -1.17943   0.00000   0.00000  -0.01969   0.00000
  20        2PZ         0.00000  -0.32715   0.16264   0.00000   0.21422
  21        3S          0.00000   2.98924  -2.13877   0.00000   3.66058
  22        3PX         0.00000   0.00000   0.00000   0.00000   0.00000
  23        3PY        -1.91785   0.00000   0.00000  -2.56114   0.00000
  24        3PZ         0.00000  -0.48003   0.64025   0.00000  -0.89091
  25        4XX         0.00000  -0.91479  -0.38011   0.00000  -1.01574
  26        4YY         0.00000   0.83428  -1.57589   0.00000  -1.81489
  27        4ZZ         0.00000  -0.99365  -0.41642   0.00000  -0.83120
  28        4XY         0.00000   0.00000   0.00000   0.00000   0.00000
  29        4XZ         0.00000   0.00000   0.00000   0.00000   0.00000
  30        4YZ         0.48615   0.00000   0.00000   0.09031   0.00000
  31 3   O  1S          0.00511  -0.01621  -0.25405   0.37457   0.24927
  32        2S          0.66708   0.32003   0.15892   0.20411   0.23830
  33        2PX         0.00000   0.00000   0.00000   0.00000   0.00000
  34        2PY        -0.07078  -0.23177   0.21646   0.13785   0.37482
  35        2PZ         0.00781  -0.16784   0.13399   0.08222   0.18023
  36        3S         -2.30817  -1.45658   2.90042  -4.73212  -2.94057
  37        3PX         0.00000   0.00000   0.00000   0.00000   0.00000
  38        3PY        -1.22341  -0.88943   0.96320  -1.14470  -0.61152
  39        3PZ        -0.67014  -0.44660   0.40921  -0.71732   0.03956
  40        4XX         0.40440   0.17852  -0.93984   1.37901   0.76934
  41        4YY        -0.82987  -0.50987  -0.49900   0.99726   0.89922
  42        4ZZ         0.15681  -0.20560  -0.72224   1.22159   1.03196
  43        4XY         0.00000   0.00000   0.00000   0.00000   0.00000
  44        4XZ         0.00000   0.00000   0.00000   0.00000   0.00000
  45        4YZ        -0.58292  -0.72159   0.44317  -0.18278   0.27810
     ALPHA DENSITY MATRIX.
                           1         2         3         4         5
   1 1   O  1S          1.04056
   2        2S         -0.09719   0.27808
   3        2PX         0.00000   0.00000   0.33040
   4        2PY        -0.02335   0.04383   0.00000   0.29418
   5        2PZ         0.00554   0.00040   0.00000   0.04223   0.46251
   6        3S         -0.12947   0.31759   0.00000   0.12817  -0.04629
   7        3PX         0.00000   0.00000   0.20909   0.00000   0.00000
   8        3PY        -0.01138   0.01959   0.00000   0.15182   0.04469
   9        3PZ         0.00179   0.00563   0.00000   0.03468   0.29510
  10        4XX        -0.00621  -0.00406   0.00000   0.00225   0.00084
  11        4YY        -0.00541  -0.00408   0.00000  -0.02342  -0.00134
  12        4ZZ        -0.00668  -0.00242   0.00000   0.00454   0.01047
  13        4XY         0.00000   0.00000  -0.01833   0.00000   0.00000
  14        4XZ         0.00000   0.00000   0.00768   0.00000   0.00000
  15        4YZ        -0.00009  -0.00081   0.00000   0.00453  -0.01476
  16 2   N  1S          0.00167  -0.00242   0.00000   0.03767  -0.00023
  17        2S          0.00121  -0.00225   0.00000  -0.09543   0.01367
  18        2PX         0.00000   0.00000   0.14710   0.00000   0.00000
  19        2PY        -0.01755   0.04354   0.00000  -0.15740   0.08142
[...]
 ===============================================================================

 within unit  1
   1. BD ( 1) O 1- N 2       22. RY*( 1) N 2              0.35    1.97    0.033
   1. BD ( 1) O 1- N 2       34. RY*( 3) O 3              0.29    2.23    0.032
   1. BD ( 1) O 1- N 2       44. BD*( 3) O 1- N 2         0.62    1.04    0.037
   1. BD ( 1) O 1- N 2       45. BD*( 1) N 2- O 3         0.47    1.50    0.034
   2. BD ( 2) O 1- N 2       33. RY*( 2) O 3              0.59    1.47    0.037
   2. BD ( 2) O 1- N 2       43. BD*( 2) O 1- N 2         2.32    0.36    0.042
   3. BD ( 3) O 1- N 2       32. RY*( 1) O 3              1.19    1.75    0.058
   3. BD ( 3) O 1- N 2       42. BD*( 1) O 1- N 2         0.56    0.92    0.029
   3. BD ( 3) O 1- N 2       44. BD*( 3) O 1- N 2         0.96    0.47    0.031
   3. BD ( 3) O 1- N 2       45. BD*( 1) N 2- O 3         1.27    0.94    0.044
   4. BD ( 1) N 2- O 3       14. RY*( 3) O 1              0.26    2.25    0.030
   4. BD ( 1) N 2- O 3       44. BD*( 3) O 1- N 2         0.31    1.05    0.026
   5. CR ( 1) O 1            22. RY*( 1) N 2              1.46   19.92    0.216
   5. CR ( 1) O 1            45. BD*( 1) N 2- O 3         0.95   19.45    0.173
   6. CR ( 1) N 2            44. BD*( 3) O 1- N 2         0.84   14.38    0.160
   7. CR ( 1) O 3            22. RY*( 1) N 2              1.15   19.92    0.192
   7. CR ( 1) O 3            42. BD*( 1) O 1- N 2         1.11   19.44    0.187
   7. CR ( 1) O 3            44. BD*( 3) O 1- N 2         0.81   18.99    0.181
   8. LP ( 1) O 1            22. RY*( 1) N 2              2.48    1.70    0.082
   8. LP ( 1) O 1            25. RY*( 4) N 2              0.87    2.53    0.060
   8. LP ( 1) O 1            44. BD*( 3) O 1- N 2         0.54    0.76    0.029
   8. LP ( 1) O 1            45. BD*( 1) N 2- O 3         4.55    1.22    0.094
   9. LP ( 1) O 3            22. RY*( 1) N 2              2.16    1.70    0.077
   9. LP ( 1) O 3            24. RY*( 3) N 2              0.26    3.01    0.035
   9. LP ( 1) O 3            25. RY*( 4) N 2              0.90    2.53    0.060
   9. LP ( 1) O 3            42. BD*( 1) O 1- N 2         4.93    1.21    0.098
   9. LP ( 1) O 3            44. BD*( 3) O 1- N 2         1.04    0.76    0.041
  10. LP ( 2) O 3            23. RY*( 2) N 2              2.00    2.41    0.101
  10. LP ( 2) O 3            29. RY*( 8) N 2              0.47    0.98    0.031
  10. LP ( 2) O 3            33. RY*( 2) O 3              0.64    1.31    0.042
  10. LP ( 2) O 3            37. RY*( 6) O 3              0.35    2.25    0.041
  10. LP ( 2) O 3            43. BD*( 2) O 1- N 2        76.59    0.20    0.156
  11. LP ( 3) O 3            22. RY*( 1) N 2              1.10    1.22    0.053
  11. LP ( 3) O 3            24. RY*( 3) N 2              1.28    2.53    0.083
  11. LP ( 3) O 3            31. RY*(10) N 2              0.28    2.28    0.037
  11. LP ( 3) O 3            32. RY*( 1) O 3              0.79    1.56    0.051
  11. LP ( 3) O 3            44. BD*( 3) O 1- N 2        73.89    0.28    0.183
  11. LP ( 3) O 3            45. BD*( 1) N 2- O 3         3.51    0.75    0.074


 NATURAL BOND ORBITALS (Summary):

                                                     Principal Delocalizations
           NBO                 Occupancy    Energy   (geminal,vicinal,remote)
 ===============================================================================
 Molecular unit  1  (NO2)
   1. BD ( 1) O  1- N  2        0.99689    -1.11029  44(g),45(g),22(g),34(v)
   2. BD ( 2) O  1- N  2        0.99936    -0.49170  43(g),33(v)
   3. BD ( 3) O  1- N  2        0.99603    -0.54495  45(g),44(g),32(v),42(g)
   4. BD ( 1) N  2- O  3        0.99537    -1.12721  44(g),14(v)
   5. CR ( 1) O  1              0.99992   -19.05860   22(v),45(v)
   6. CR ( 1) N  2              0.99983   -14.45775   44(g)
   7. CR ( 1) O  3              0.99992   -19.05861   22(v),42(v),44(v)
   8. LP ( 1) O  1              0.98980    -0.83292   45(v),22(v),25(v),44(g)
   9. LP ( 1) O  3              0.98980    -0.83296   42(v),22(v),44(v),25(v)
                                                    24(v)
  10. LP ( 2) O  3              0.74774    -0.33433   43(v),23(v),33(g),29(v)
                                                    37(g)
  11. LP ( 3) O  3              0.74484    -0.35479   44(v),45(g),24(v),22(v)
                                                    32(g),31(v)
  12. RY*( 1) O  1              0.00121     1.20367
  13. RY*( 2) O  1              0.00072     0.97348
  14. RY*( 3) O  1              0.00011     1.12135
  15. RY*( 4) O  1              0.00001     0.91022
  16. RY*( 5) O  1              0.00000     3.32959
  17. RY*( 6) O  1              0.00000     1.91758
  18. RY*( 7) O  1              0.00000     1.79713
  19. RY*( 8) O  1              0.00001     2.15543
  20. RY*( 9) O  1              0.00000     2.38918
  21. RY*(10) O  1              0.00000     1.97522
  22. RY*( 1) N  2              0.00891     0.86293
  23. RY*( 2) N  2              0.00394     2.07424
  24. RY*( 3) N  2              0.00181     2.17608
  25. RY*( 4) N  2              0.00107     1.70078
  26. RY*( 5) N  2              0.00001     2.26722
  27. RY*( 6) N  2              0.00001     0.94906
  28. RY*( 7) N  2              0.00000     1.76431
  29. RY*( 8) N  2              0.00000     0.64077
  30. RY*( 9) N  2              0.00001     2.52364
  31. RY*(10) N  2              0.00000     1.92789
  32. RY*( 1) O  3              0.00108     1.20024
  33. RY*( 2) O  3              0.00064     0.97449
  34. RY*( 3) O  3              0.00011     1.12462
  35. RY*( 4) O  3              0.00000     3.33760
  36. RY*( 5) O  3              0.00001     0.98177
  37. RY*( 6) O  3              0.00000     1.91776
  38. RY*( 7) O  3              0.00000     1.79695
  39. RY*( 8) O  3              0.00000     2.08566
  40. RY*( 9) O  3              0.00000     2.39538
  41. RY*(10) O  3              0.00001     1.96104
  42. BD*( 1) O  1- N  2        0.01393     0.37659
  43. BD*( 2) O  1- N  2        0.24760    -0.13637  23(g),13(g),29(g),33(v)
                                                    17(g)
  44. BD*( 3) O  1- N  2        0.24874    -0.07316  42(g),45(g),12(g),22(g)
                                                    24(g),32(v),25(g),31(g)
  45. BD*( 1) N  2- O  3        0.01055     0.39204
          -------------------------------
                 Total Lewis   10.45949  ( 95.0863%)
           Valence non-Lewis    0.52082  (  4.7347%)
           Rydberg non-Lewis    0.01969  (  0.1790%)
          -------------------------------
               Total unit  1   11.00000  (100.0000%)
              Charge unit  1    0.50000


 NATURAL RESONANCE THEORY ANALYSIS, beta spin:

 Maximum reference structures :    20
 Maximum resonance structures :  1241
 Memory requirements :    6231736 words of   6237717 available

   9 candidate reference structure(s) calculated by SR LEWIS
   0 candidate reference structure(s) added by hyperbond search (SR HBRES)
 Total of   9 candidate reference structures.
 Initial loops searched   33 bonding pattern(s); all but  8 were discarded
 Reference   1:  rho*=0.54048, f(w)=0.96008 converged after 157 iterations
 Reference   2:  rho*=0.78737, ionic; deleted
 Reference   3:  rho*=0.54048, f(w)=0.96008 converged after 157 iterations
 Reference   4:  rho*=0.54048, f(w)=0.96008 converged after 157 iterations
 Reference   5:  rho*=0.78737, ionic; deleted
 Reference   6:  rho*=0.78624, f(w)=0.95088 converged after 231 iterations
 Warning:  Reference structure has lower weight than  3 of the secondaries
 Reference   7:  rho*=0.54048, f(w)=0.96008 converged after 157 iterations
 Reference   8:  rho*=0.78624, f(w)=0.95088 converged after 231 iterations
 Warning:  Reference structure has lower weight than  3 of the secondaries
 Multi-ref( 6):  D(W)=0.05449, F(W)=0.36311 converged after 209 iterations
 Multi-ref( 4):  D(W)=0.05868, F(W)=0.31414 converged after 193 iterations

                                                fractional accuracy f(w)
                  non-Lewis             -------------------------------------
  Ref     Wgt      density      d(0)      all NBOs     val+core     valence
 ----------------------------------------------------------------------------
   1    0.00000    0.54048    0.07487     0.96008      0.96556      0.96556
   3    0.50000    0.54048    0.07487     0.96008      0.96556      0.96556
   4    0.50000    0.54048    0.07487     0.96008      0.96556      0.96556
   7    0.00000    0.54048    0.07487     0.96008      0.96556      0.96556


 TOPO matrix for the leading resonance structure:

     Atom  1   2   3
     ---- --- --- ---
   1.  O   2   2   0
   2.  N   2   0   2
   3.  O   0   2   2

         Resonance
    RS   Weight(%)                  Added(Removed)
 ---------------------------------------------------------------------------
    1*(3)  55.39                                                            
    2*     21.79   ( O  1- N  2),  N  2- O  3,  O  1, ( O  3)               
    3*     21.79    O  1- N  2, ( N  2- O  3), ( O  1),  O  3               
    4       0.52   ( O  1- N  2), ( O  1- N  2),  N  2- O  3,  N  2- O  3,  
                   O  1,  O  1, ( O  3), ( O  3)                           
    5       0.52    O  1- N  2,  O  1- N  2, ( N  2- O  3), ( N  2- O  3),  
                  ( O  1), ( O  1),  O  3,  O  3                           
    6-8     0.00
 ---------------------------------------------------------------------------
          100.00   * Total *                [* = reference structure]


 Natural Bond Order:  (total/covalent/ionic)                                   

     Atom       1      2      3
     ----   ------ ------ ------
   1.  O  t 1.0000 1.0000 0.0000
          c   ---  0.7591 0.0000                                          
          i   ---  0.2409 0.0000                                          

   2.  N  t 1.0000 0.0000 1.0000
          c 0.7591   ---  0.7591                                          
          i 0.2409   ---  0.2409                                          

   3.  O  t 0.0000 1.0000 1.0000
          c 0.0000 0.7591   ---                                           
          i 0.0000 0.2409   ---                                           


 Natural Atomic Valencies:                                                     

                      Co-    Electro-
     Atom  Valency  Valency  Valency
     ----  -------  -------  -------
   1.  O    1.0000   0.7591   0.2409
   2.  N    2.0000   1.5182   0.4818
   3.  O    1.0000   0.7591   0.2409


 Natural Bond Order (total):                                                   

     Atom    1       2       3
     ---- ------  ------  ------
   1.  O  2.2190  1.7190  0.0620
   2.  N  1.7190  0.5620  1.7190
   3.  O  0.0620  1.7190  2.2190


 Natural Atomic Valencies (total):                                             

                      Co-    Electro-
     Atom  Valency  Valency  Valency
     ----  -------  -------  -------
   1.  O    1.7810   1.3581   0.4229
   2.  N    3.4380   2.6066   0.8314
   3.  O    1.7810   1.3581   0.4229

 $NRTSTRB
   STR        ! Wgt = 55.39%
     LONE 1 2 3 2 END
     BOND D 1 2 D 2 3 END
   END
   STR        ! Wgt = 21.79%
     LONE 1 3 3 1 END
     BOND S 1 2 T 2 3 END
   END
   STR        ! Wgt = 21.79%
     LONE 1 1 3 3 END
     BOND T 1 2 S 2 3 END
   END
 $END
 Full mass-weighted force constant matrix:
 Low frequencies ---  -18.0045  -13.9215   -8.1373   -0.0009   -0.0006   -0.0004
 Low frequencies ---  749.1627 1404.3035 1720.5130
 Diagonal vibrational polarizability:
        0.0000000       2.9400713       0.3828672
 Harmonic frequencies (cm**-1), IR intensities (KM/Mole), Raman scattering
 activities (A**4/AMU), depolarization ratios for plane and unpolarized
 incident light, reduced masses (AMU), force constants (mDyne/A),
 and normal coordinates:
                     1                      2                      3
                    A1                     A1                     B2
 Frequencies --   749.1627              1404.3035              1720.5130
 Red. masses --    15.1678                15.3149                14.6240
 Frc consts  --     5.0156                17.7945                25.5054
 IR Inten    --     7.8627                 0.4292               323.4005
 Atom AN      X      Y      Z        X      Y      Z        X      Y      Z
   1   8     0.00   0.46   0.28     0.00   0.51  -0.26     0.00  -0.36   0.15
   2   7     0.00   0.00  -0.64     0.00   0.00   0.58     0.00   0.83   0.00
   3   8     0.00  -0.46   0.28     0.00  -0.51  -0.26     0.00  -0.36  -0.15

 -------------------
 - Thermochemistry -
 -------------------
 Temperature   298.150 Kelvin.  Pressure   1.00000 Atm.
 Atom  1 has atomic number  8 and mass  15.99491
 Atom  2 has atomic number  7 and mass  14.00307
 Atom  3 has atomic number  8 and mass  15.99491
 Molecular mass:    45.99290 amu.
 Principal axes and moments of inertia in atomic units:
                           1         2         3
     EIGENVALUES --     7.74705 139.91886 147.66591
           X            0.00000   0.00000   1.00000
           Y            1.00000   0.00000   0.00000
           Z            0.00000   1.00000   0.00000
 This molecule is an asymmetric top.
 Rotational symmetry number  2.
 Rotational temperatures (Kelvin)     11.18023     0.61903     0.58655
 Rotational constants (GHZ):         232.95855    12.89848    12.22179
 Zero-point vibrational energy      23171.5 (Joules/Mol)
                                    5.53813 (Kcal/Mol)
 Vibrational temperatures:   1077.88  2020.48  2475.43
          (Kelvin)
 
 Zero-point correction=                           0.008826 (Hartree/Particle)
 Thermal correction to Energy=                    0.011762
 Thermal correction to Enthalpy=                  0.012706
 Thermal correction to Gibbs Free Energy=        -0.014561
 Sum of electronic and zero-point Energies=           -205.063381
 Sum of electronic and thermal Energies=              -205.060444
 Sum of electronic and thermal Enthalpies=            -205.059500
 Sum of electronic and thermal Free Energies=         -205.086767
 
                     E (Thermal)             CV                S
                      KCal/Mol        Cal/Mol-Kelvin    Cal/Mol-Kelvin
 Total                    7.381              6.838             57.388
 Electronic               0.000              0.000              1.377
 Translational            0.889              2.981             37.403
 Rotational               0.889              2.981             18.332
 Vibrational              5.603              0.876              0.275
                       Q            Log10(Q)             Ln(Q)
 Total Bot       0.498266D+07          6.697461         15.421474
 Total V=0       0.571393D+11         10.756935         24.768757
 Vib (Bot)       0.897381D-04         -4.047023         -9.318615
 Vib (V=0)       0.102908D+01          0.012451          0.028668
 Electronic      0.200000D+01          0.301030          0.693147
 Translational   0.122600D+08          7.088491         16.321855
 Rotational      0.226445D+04          3.354963          7.725087
 ***** Axes restored to original set *****
 -------------------------------------------------------------------
 Center     Atomic                   Forces (Hartrees/Bohr)
 Number     Number              X              Y              Z
 -------------------------------------------------------------------
    1          8           0.000000000    0.000061630    0.000071638
    2          7           0.000000000    0.000000000   -0.000143277
    3          8           0.000000000   -0.000061630    0.000071638
 -------------------------------------------------------------------
 Cartesian Forces:  Max     0.000143277 RMS     0.000065310

 GradGradGradGradGradGradGradGradGradGradGradGradGradGradGradGradGradGrad
 Berny optimization.
 Search for a local minimum.
 Step number   1 out of a maximum of   2
 All quantities printed in internal units (Hartrees-Bohrs-Radians)
 Second derivative matrix not updated -- analytic derivatives used.
 The second derivative matrix:
                          X1        Y1        Z1        X2        Y2
           X1          -0.00009
           Y1           0.00000   0.66367
           Z1           0.00000  -0.22740   0.15704
           X2           0.00006   0.00000   0.00000  -0.00012
           Y2           0.00000  -0.51691   0.22044   0.00000   1.03383
           Z2           0.00000   0.23437  -0.22013   0.00000   0.00000
           X3           0.00003   0.00000   0.00000   0.00006   0.00000
           Y3           0.00000  -0.14676   0.00696   0.00000  -0.51691
           Z3           0.00000  -0.00696   0.06308   0.00000  -0.22044
                          Z2        X3        Y3        Z3
           Z2           0.44025
           X3           0.00000  -0.00009
           Y3          -0.23437   0.00000   0.66367
           Z3          -0.22013   0.00000   0.22740   0.15704
     Eigenvalues ---    0.32241   1.14775   1.64306
 Angle between quadratic step and forces=   9.64 degrees.
 Linear search not attempted -- first point.
 TrRot=  0.000000  0.000000  0.000009  0.000000  0.000000  0.000000
 Variable       Old X    -DE/DX   Delta X   Delta X   Delta X     New X
                                 (Linear)    (Quad)   (Total)
    X1        0.00000   0.00000   0.00000   0.00000   0.00000   0.00000
    Y1        2.09138   0.00006   0.00000   0.00025   0.00025   2.09162
    Z1       -0.27144   0.00007   0.00000   0.00019   0.00020  -0.27124
    X2        0.00000   0.00000   0.00000   0.00000   0.00000   0.00000
    Y2        0.00000   0.00000   0.00000   0.00000   0.00000   0.00000
    Z2        0.62042  -0.00014   0.00000  -0.00040  -0.00039   0.62003
    X3        0.00000   0.00000   0.00000   0.00000   0.00000   0.00000
    Y3       -2.09138  -0.00006   0.00000  -0.00025  -0.00025  -2.09162
    Z3       -0.27144   0.00007   0.00000   0.00019   0.00020  -0.27124
         Item               Value     Threshold  Converged?
 Maximum Force            0.000143     0.000450     YES
 RMS     Force            0.000065     0.000300     YES
 Maximum Displacement     0.000391     0.001800     YES
 RMS     Displacement     0.000197     0.001200     YES
 Predicted change in Energy=-5.721921D-08
 Optimization completed.
    -- Stationary point found.
 GradGradGradGradGradGradGradGradGradGradGradGradGradGradGradGradGradGrad

 1\1\GINC-SUN\Freq\UB3LYP\6-31G(d)\N1O2(2)\XAVIER\09-Sep-2008\0\\# B3LY
 P/6-31G* POP=(FULL,NBOREAD) GFPRINT FREQ GUESS=READ GEOM=CHECK\\InChI=
 1/NO2/c2-1-3\\0,2\O,0.,1.1067086296,-0.1436373012\N,0.,0.,0.3283138313
 \O,0.,-1.1067086296,-0.1436373012\\Version=x86-Linux-G03RevB.05\State=
 2-A1\HF=-205.0722061\S2=0.753298\S2-1=0.\S2A=0.750007\RMSD=3.207e-10\R
 MSF=6.531e-05\Dipole=0.,0.,0.1266237\DipoleDeriv=-0.0709917,0.,0.,0.,-
 0.8785695,-0.1260912,0.,0.3444503,-0.1259751,0.1419834,0.,0.,0.,1.7571
 39,0.,0.,0.,0.2519503,-0.0709917,0.,0.,0.,-0.8785695,0.1260912,0.,-0.3
 444503,-0.1259751\Polar=7.0803908,0.,24.0760418,0.,0.,8.9752236\PG=C02
 V [C2(N1),SGV(O2)]\NImag=0\\-0.00008852,0.,0.66366944,0.,-0.22740246,0
 .15704486,0.00005974,0.,0.,-0.00011949,0.,-0.51691321,0.22043904,0.,1.
 03382642,0.,0.23436589,-0.22012520,0.,0.,0.44025039,0.00002879,0.,0.,0
 .00005974,0.,0.,-0.00008852,0.,-0.14675624,0.00696343,0.,-0.51691321,-
 0.23436589,0.,0.66366944,0.,-0.00696343,0.06308034,0.,-0.22043904,-0.2
 2012520,0.,0.22740246,0.15704486\\0.,-0.00006163,-0.00007164,0.,0.,0.0
 0014328,0.,0.00006163,-0.00007164\\\@


 Other things may change us, but we start and end with family.
 -- Anthony Brandt
 Job cpu time:  0 days  0 hours  0 minutes 26.3 seconds.
 File lengths (MBytes):  RWF=      7 Int=      0 D2E=      0 Chk=      4 Scr=      1
 Normal termination of Gaussian 03 at Tue Sep  9 16:47:46 2008.
