 Entering Gaussian System, Link 0=/gaussian/g03/g03
 Input=ammonia.nbo.com
 Output=ammonia.nbo.log
 Initial command:
 /gaussian/g03/l1.exe /scratch/Gau-4700.inp -scrdir=/scratch/
 Entering Link 1 = /gaussian/g03/l1.exe PID=      4701.
  
 Copyright (c) 1988,1990,1992,1993,1995,1998,2003, Gaussian, Inc.
                  All Rights Reserved.
  
 This is the Gaussian(R) 03 program.  It is based on the
 the Gaussian(R) 98 system (copyright 1998, Gaussian, Inc.),
 the Gaussian(R) 94 system (copyright 1995, Gaussian, Inc.),
 the Gaussian 92(TM) system (copyright 1992, Gaussian, Inc.),
 the Gaussian 90(TM) system (copyright 1990, Gaussian, Inc.),
 the Gaussian 88(TM) system (copyright 1988, Gaussian, Inc.),
 the Gaussian 86(TM) system (copyright 1986, Carnegie Mellon
 University), and the Gaussian 82(TM) system (copyright 1983,
 Carnegie Mellon University). Gaussian is a federally registered
 trademark of Gaussian, Inc.
  
 This software contains proprietary and confidential information,
 including trade secrets, belonging to Gaussian, Inc.
  
 This software is provided under written license and may be
 used, copied, transmitted, or stored only in accord with that
 written license.
  
 The following legend is applicable only to US Government
 contracts under DFARS:
  
                    RESTRICTED RIGHTS LEGEND
  
 Use, duplication or disclosure by the US Government is subject
 to restrictions as set forth in subparagraph (c)(1)(ii) of the
 Rights in Technical Data and Computer Software clause at DFARS
 252.227-7013.
  
 Gaussian, Inc.
 Carnegie Office Park, Building 6, Pittsburgh, PA 15106 USA
  
 The following legend is applicable only to US Government
 contracts under FAR:
  
                    RESTRICTED RIGHTS LEGEND
  
 Use, reproduction and disclosure by the US Government is subject
 to restrictions as set forth in subparagraph (c) of the
 Commercial Computer Software - Restricted Rights clause at FAR
 52.227-19.
  
 Gaussian, Inc.
 Carnegie Office Park, Building 6, Pittsburgh, PA 15106 USA
  
  
 ---------------------------------------------------------------
 Warning -- This program may not be used in any manner that
 competes with the business of Gaussian, Inc. or will provide
 assistance to any competitor of Gaussian, Inc.  The licensee
 of this program is prohibited from giving any competitor of
 Gaussian, Inc. access to this program.  By using this program,
 the user acknowledges that Gaussian, Inc. is engaged in the
 business of creating and licensing software in the field of
 computational chemistry and represents and warrants to the
 licensee that it is not a competitor of Gaussian, Inc. and that
 it will not use this program in any manner prohibited above.
 ---------------------------------------------------------------
  

 Cite this work as:
 Gaussian 03, Revision B.05,
 M. J. Frisch, G. W. Trucks, H. B. Schlegel, G. E. Scuseria, 
 M. A. Robb, J. R. Cheeseman, J. A. Montgomery, Jr., T. Vreven, 
 K. N. Kudin, J. C. Burant, J. M. Millam, S. S. Iyengar, J. Tomasi, 
 V. Barone, B. Mennucci, M. Cossi, G. Scalmani, N. Rega, 
 G. A. Petersson, H. Nakatsuji, M. Hada, M. Ehara, K. Toyota, 
 R. Fukuda, J. Hasegawa, M. Ishida, T. Nakajima, Y. Honda, O. Kitao, 
 H. Nakai, M. Klene, X. Li, J. E. Knox, H. P. Hratchian, J. B. Cross, 
 C. Adamo, J. Jaramillo, R. Gomperts, R. E. Stratmann, O. Yazyev, 
 A. J. Austin, R. Cammi, C. Pomelli, J. W. Ochterski, P. Y. Ayala, 
 K. Morokuma, G. A. Voth, P. Salvador, J. J. Dannenberg, 
 V. G. Zakrzewski, S. Dapprich, A. D. Daniels, M. C. Strain, 
 O. Farkas, D. K. Malick, A. D. Rabuck, K. Raghavachari, 
 J. B. Foresman, J. V. Ortiz, Q. Cui, A. G. Baboul, S. Clifford, 
 J. Cioslowski, B. B. Stefanov, G. Liu, A. Liashenko, P. Piskorz, 
 I. Komaromi, R. L. Martin, D. J. Fox, T. Keith, M. A. Al-Laham, 
 C. Y. Peng, A. Nanayakkara, M. Challacombe, P. M. W. Gill, 
 B. Johnson, W. Chen, M. W. Wong, C. Gonzalez, and J. A. Pople, 
 Gaussian, Inc., Pittsburgh PA, 2003.
 
 **********************************************
 Gaussian 03:  x86-Linux-G03RevB.05  8-Nov-2003
                   9-Sep-2008 
 **********************************************
 %chk=../CHK/ammonia.chk
 --------------------------------------------------------------------
 # b3lyp/6-31g* pop=(full,nboread) gfprint freq guess=read geom=check
 --------------------------------------------------------------------
 1/10=4,29=2,30=1,38=1/1,3;
 2/40=1/2;
 3/5=1,6=6,7=1,11=2,16=1,24=100,25=1,30=1,74=-5/1,2,3;
 4/5=1/1;
 5/5=2,38=6/2;
 8/6=4,10=90,11=11/1;
 11/6=1,8=1,9=11,15=111,16=1/1,2,10;
 10/6=1/2;
 6/7=3,18=1,28=1,40=1/1,7;
 7/8=1,10=1,25=1/1,2,3,16;
 1/10=4,30=1/3;
 99//99;
 ----------------
 InChI=1/H3N/h1H3
 ----------------
 No Z-matrix found on checkpoint file.
 Cartesian coordinates read from the checkpoint file:
 ../CHK/ammonia.chk
 Charge =  0 Multiplicity = 1
  H                                                 0.000000001479      0.938714868974     -0.278300648734
  H                                                 0.812950922702     -0.469357435768     -0.278300648734
  N                                                 0.000000000000      0.000000000000      0.119271706600
  H                                                -0.812950924181     -0.469357433206     -0.278300648734
 Recover connectivity data from disk.

 GradGradGradGradGradGradGradGradGradGradGradGradGradGradGradGradGradGrad
 Berny optimization.
 Initialization pass.
 Trust Radius=3.00D-01 FncErr=1.00D-07 GrdErr=1.00D-07
 Number of steps in this run=   2 maximum allowed number of steps=   2.
 GradGradGradGradGradGradGradGradGradGradGradGradGradGradGradGradGradGrad

                          Input orientation:                          
 ---------------------------------------------------------------------
 Center     Atomic     Atomic              Coordinates (Angstroms)
 Number     Number      Type              X           Y           Z
 ---------------------------------------------------------------------
    1          1             0        0.000000    0.938715   -0.278301
    2          1             0        0.812951   -0.469357   -0.278301
    3          7             0        0.000000    0.000000    0.119272
    4          1             0       -0.812951   -0.469357   -0.278301
 ---------------------------------------------------------------------
                    Distance matrix (angstroms):
                    1          2          3          4
     1  H    0.000000
     2  H    1.625902   0.000000
     3  N    1.019436   1.019436   0.000000
     4  H    1.625902   1.625902   1.019436   0.000000
 Stoichiometry    H3N
 Framework group  C3V[C3(N),3SGV(H)]
 Deg. of freedom     2
 Full point group                 C3V     NOp   6
 Largest Abelian subgroup         CS      NOp   2
 Largest concise Abelian subgroup CS      NOp   2
                         Standard orientation:                         
 ---------------------------------------------------------------------
 Center     Atomic     Atomic              Coordinates (Angstroms)
 Number     Number      Type              X           Y           Z
 ---------------------------------------------------------------------
    1          1             0        0.000000    0.938715   -0.278301
    2          1             0        0.812951   -0.469357   -0.278301
    3          7             0        0.000000    0.000000    0.119272
    4          1             0       -0.812951   -0.469357   -0.278301
 ---------------------------------------------------------------------
 Rotational constants (GHZ):    292.9461225    292.9461225    189.6895487
 Standard basis: 6-31G(d) (6D, 7F)
 AO basis set:
 Atom H1       Shell     1 S   3     bf    1 -     1          0.000000000000          1.773914020200         -0.525912009000
      0.1873113696D+02  0.3349460434D-01
      0.2825394365D+01  0.2347269535D+00
      0.6401216923D+00  0.8137573261D+00
 Atom H1       Shell     2 S   1     bf    2 -     2          0.000000000000          1.773914020200         -0.525912009000
      0.1612777588D+00  0.1000000000D+01
 Atom H2       Shell     3 S   3     bf    3 -     3          1.536254605623         -0.886957010100         -0.525912009000
      0.1873113696D+02  0.3349460434D-01
      0.2825394365D+01  0.2347269535D+00
      0.6401216923D+00  0.8137573261D+00
 Atom H2       Shell     4 S   1     bf    4 -     4          1.536254605623         -0.886957010100         -0.525912009000
      0.1612777588D+00  0.1000000000D+01
 Atom N3       Shell     5 S   6     bf    5 -     5          0.000000000000          0.000000000000          0.225390861000
      0.4173511460D+04  0.1834772160D-02
      0.6274579110D+03  0.1399462700D-01
      0.1429020930D+03  0.6858655181D-01
      0.4023432930D+02  0.2322408730D+00
      0.1282021290D+02  0.4690699481D+00
      0.4390437010D+01  0.3604551991D+00
 Atom N3       Shell     6 SP   3    bf    6 -     9          0.000000000000          0.000000000000          0.225390861000
      0.1162636186D+02 -0.1149611817D+00  0.6757974388D-01
      0.2716279807D+01 -0.1691174786D+00  0.3239072959D+00
      0.7722183966D+00  0.1145851947D+01  0.7408951398D+00
 Atom N3       Shell     7 SP   1    bf   10 -    13          0.000000000000          0.000000000000          0.225390861000
      0.2120314975D+00  0.1000000000D+01  0.1000000000D+01
 Atom N3       Shell     8 D   1     bf   14 -    19          0.000000000000          0.000000000000          0.225390861000
      0.8000000000D+00  0.1000000000D+01
 Atom H4       Shell     9 S   3     bf   20 -    20         -1.536254605623         -0.886957010100         -0.525912009000
      0.1873113696D+02  0.3349460434D-01
      0.2825394365D+01  0.2347269535D+00
      0.6401216923D+00  0.8137573261D+00
 Atom H4       Shell    10 S   1     bf   21 -    21         -1.536254605623         -0.886957010100         -0.525912009000
      0.1612777588D+00  0.1000000000D+01
 There are    15 symmetry adapted basis functions of A'  symmetry.
 There are     6 symmetry adapted basis functions of A"  symmetry.
 Integral buffers will be    262144 words long.
 Raffenetti 2 integral format.
 Two-electron integral symmetry is turned on.
    21 basis functions,    40 primitive gaussians,    21 cartesian basis functions
     5 alpha electrons        5 beta electrons
       nuclear repulsion energy        11.8772550273 Hartrees.
 NAtoms=    4 NActive=    4 NUniq=    2 SFac= 5.66D+00 NAtFMM=   60 Big=F
 One-electron integrals computed using PRISM.
 NBasis=    21 RedAO= T  NBF=    15     6
 NBsUse=    21 1.00D-06 NBFU=    15     6
 Initial guess read from the checkpoint file:
 ../CHK/ammonia.chk
 Initial guess orbital symmetries:
       Occupied  (A1) (A1) (E) (E) (A1)
       Virtual   (A1) (E) (E) (E) (E) (A1) (E) (E) (A1) (A1) (E)
                 (E) (A1) (E) (E) (A1)
 Requested convergence on RMS density matrix=1.00D-08 within 128 cycles.
 Requested convergence on MAX density matrix=1.00D-06.
 Requested convergence on             energy=1.00D-06.
 No special actions if energy rises.
 Keep R1 integrals in memory in canonical form, NReq=      512598.
 A guess orbital has undefined symmetry, so N**3 symmetry is turned off.
 SCF Done:  E(RB+HF-LYP) =  -56.5479476356     A.U. after    1 cycles
             Convg  =    0.3615D-10             -V/T =  2.0092
             S**2   =   0.0000
 Range of M.O.s used for correlation:     1    21
 NBasis=    21 NAE=     5 NBE=     5 NFC=     0 NFV=     0
 NROrb=     21 NOA=     5 NOB=     5 NVA=    16 NVB=    16
 Symmetrizing basis deriv contribution to polar:
 IMax=3 JMax=2 DiffMx= 0.00D+00
 G2DrvN: will do    5 centers at a time, making    1 passes doing MaxLOS=2.
 FoFDir/FoFCou used for L=0 through L=2.
          Differentiating once with respect to electric field.
                with respect to dipole field.
          Differentiating once with respect to nuclear coordinates.
          Store integrals in memory, NReq=      457259.
          There are   9 degrees of freedom in the 1st order CPHF.
     9 vectors were produced by pass  0.
 AX will form   9 AO Fock derivatives at one time.
     9 vectors were produced by pass  1.
     9 vectors were produced by pass  2.
     9 vectors were produced by pass  3.
     9 vectors were produced by pass  4.
     3 vectors were produced by pass  5.
 Inv2:  IOpt= 1 Iter= 1 AM= 8.00D-16 Conv= 1.00D-12.
 Inverted reduced A of dimension   48 with in-core refinement.
 Isotropic polarizability for W=    0.000000        8.31 Bohr**3.
 End of Minotr Frequency-dependent properties file   721 does not exist.

 **********************************************************************

            Population analysis using the SCF density.

 **********************************************************************

 Orbital symmetries:
       Occupied  (A1) (A1) (E) (E) (A1)
       Virtual   (A1) (E) (E) (E) (E) (A1) (E) (E) (A1) (A1) (E)
                 (E) (A1) (E) (E) (A1)
 The electronic state is 1-A1.
 Alpha  occ. eigenvalues --  -14.30602  -0.84529  -0.45226  -0.45226  -0.25235
 Alpha virt. eigenvalues --    0.07860   0.16779   0.16779   0.68325   0.68325
 Alpha virt. eigenvalues --    0.72190   0.91513   0.91513   0.92215   1.15589
 Alpha virt. eigenvalues --    1.67547   1.67547   1.94082   2.40297   2.40297
 Alpha virt. eigenvalues --    3.66836
     Molecular Orbital Coefficients
                           1         2         3         4         5
                        (A1)--O   (A1)--O   (E)--O    (E)--O    (A1)--O
     EIGENVALUES --   -14.30602  -0.84529  -0.45226  -0.45226  -0.25235
   1 1   H  1S          0.00024   0.14004   0.25229   0.12075  -0.06578
   2        2S         -0.00034   0.01216   0.17624   0.08435  -0.06686
   3 2   H  1S          0.00024   0.14004  -0.23072   0.15812  -0.06578
   4        2S         -0.00034   0.01216  -0.16117   0.11046  -0.06686
   5 3   N  1S          0.99271  -0.19874   0.00000   0.00000  -0.07631
   6        2S          0.03464   0.41519   0.00000   0.00000   0.16523
   7        2PX         0.00000   0.00000  -0.20806   0.43472   0.00000
   8        2PY         0.00000   0.00000   0.43472   0.20806   0.00000
   9        2PZ        -0.00134  -0.11677   0.00000   0.00000   0.55280
  10        3S          0.00376   0.42636   0.00000   0.00000   0.34222
  11        3PX         0.00000   0.00000  -0.10682   0.22320   0.00000
  12        3PY         0.00000   0.00000   0.22320   0.10682   0.00000
  13        3PZ         0.00038  -0.05879   0.00000   0.00000   0.46505
  14        4XX        -0.00817   0.00686  -0.01231  -0.00589   0.00827
  15        4YY        -0.00817   0.00686   0.01231   0.00589   0.00827
  16        4ZZ        -0.00821  -0.00543   0.00000   0.00000  -0.04213
  17        4XY         0.00000   0.00000   0.00680  -0.01422   0.00000
  18        4XZ         0.00000   0.00000   0.01532  -0.03200   0.00000
  19        4YZ         0.00000   0.00000  -0.03200  -0.01532   0.00000
  20 4   H  1S          0.00024   0.14004  -0.02158  -0.27887  -0.06578
  21        2S         -0.00034   0.01216  -0.01507  -0.19481  -0.06686
                           6         7         8         9        10
                        (A1)--V   (E)--V    (E)--V    (E)--V    (E)--V
     EIGENVALUES --     0.07860   0.16779   0.16779   0.68325   0.68325
   1 1   H  1S         -0.05665  -0.03341   0.10011  -0.11210  -0.76788
   2        2S         -0.91988  -0.51673   1.54839   0.01705   0.11681
   3 2   H  1S         -0.05665  -0.06999  -0.07899  -0.60895   0.48102
   4        2S         -0.91988  -1.08258  -1.22170   0.09263  -0.07317
   5 3   N  1S         -0.12728   0.00000   0.00000   0.00000   0.00000
   6        2S          0.16837   0.00000   0.00000   0.00000   0.00000
   7        2PX         0.00000   0.39704   0.13250  -0.35166   0.05134
   8        2PY         0.00000   0.13250  -0.39704  -0.05134  -0.35166
   9        2PZ        -0.19975   0.00000   0.00000   0.00000   0.00000
  10        3S          1.81214   0.00000   0.00000   0.00000   0.00000
  11        3PX         0.00000   0.95685   0.31932   1.13611  -0.16586
  12        3PY         0.00000   0.31932  -0.95685   0.16586   1.13611
  13        3PZ        -0.47725   0.00000   0.00000   0.00000   0.00000
  14        4XX        -0.03393   0.00196  -0.00588   0.01780   0.12192
  15        4YY        -0.03393  -0.00196   0.00588  -0.01780  -0.12192
  16        4ZZ        -0.02901   0.00000   0.00000   0.00000   0.00000
  17        4XY         0.00000   0.00679   0.00227   0.14078  -0.02055
  18        4XZ         0.00000  -0.01515  -0.00505   0.08779  -0.01282
  19        4YZ         0.00000  -0.00505   0.01515   0.01282   0.08779
  20 4   H  1S         -0.05665   0.10340  -0.02112   0.72105   0.28685
  21        2S         -0.91988   1.59931  -0.32669  -0.10968  -0.04363
                          11        12        13        14        15
                        (A1)--V   (E)--V    (E)--V    (A1)--V   (A1)--V
     EIGENVALUES --     0.72190   0.91513   0.91513   0.92215   1.15589
   1 1   H  1S          0.03983   0.05538  -0.54727   0.69797  -0.36840
   2        2S          0.13939  -0.14835   1.46612  -0.59218  -0.78205
   3 2   H  1S          0.03983   0.44626   0.32159   0.69797  -0.36840
   4        2S          0.13939  -1.19552  -0.86154  -0.59218  -0.78205
   5 3   N  1S          0.01885   0.00000   0.00000   0.06291  -0.08911
   6        2S         -0.17343   0.00000   0.00000  -0.73815  -1.52819
   7        2PX         0.00000  -0.98483  -0.09965   0.00000   0.00000
   8        2PY         0.00000  -0.09965   0.98483   0.00000   0.00000
   9        2PZ        -0.98219   0.00000   0.00000   0.24044   0.14516
  10        3S         -0.05098   0.00000   0.00000   1.11837   4.08091
  11        3PX         0.00000   1.40695   0.14237   0.00000   0.00000
  12        3PY         0.00000   0.14237  -1.40695   0.00000   0.00000
  13        3PZ         1.11847   0.00000   0.00000   0.00263  -0.84786
  14        4XX        -0.04588  -0.00871   0.08612  -0.01234  -0.40214
  15        4YY        -0.04588   0.00871  -0.08612  -0.01234  -0.40214
  16        4ZZ        -0.04768   0.00000   0.00000  -0.24905  -0.03899
  17        4XY         0.00000  -0.09944  -0.01006   0.00000   0.00000
  18        4XZ         0.00000  -0.06959  -0.00704   0.00000   0.00000
  19        4YZ         0.00000  -0.00704   0.06959   0.00000   0.00000
  20 4   H  1S          0.03983  -0.50164   0.22568   0.69797  -0.36840
  21        2S          0.13939   1.34387  -0.60458  -0.59218  -0.78205
                          16        17        18        19        20
                        (E)--V    (E)--V    (A1)--V   (E)--V    (E)--V
     EIGENVALUES --     1.67547   1.67547   1.94082   2.40297   2.40297
   1 1   H  1S         -0.03514   0.00169  -0.46343   0.90405  -0.12203
   2        2S         -0.00426   0.00020  -0.21079  -0.03242   0.00438
   3 2   H  1S          0.01611  -0.03128  -0.46343  -0.34635   0.84395
   4        2S          0.00195  -0.00379  -0.21079   0.01242  -0.03027
   5 3   N  1S          0.00000   0.00000  -0.05346   0.00000   0.00000
   6        2S          0.00000   0.00000  -0.47253   0.00000   0.00000
   7        2PX         0.00089   0.01859   0.00000  -0.00862  -0.06388
   8        2PY         0.01859  -0.00089   0.00000  -0.06388   0.00862
   9        2PZ         0.00000   0.00000  -0.02005   0.00000   0.00000
  10        3S          0.00000   0.00000   1.54321   0.00000   0.00000
  11        3PX         0.00204   0.04250   0.00000  -0.08760  -0.64898
  12        3PY         0.04250  -0.00204   0.00000  -0.64898   0.08760
  13        3PZ         0.00000   0.00000  -0.46652   0.00000   0.00000
  14        4XX        -0.56699   0.02723   0.44169   0.78017  -0.10531
  15        4YY         0.56699  -0.02723   0.44169  -0.78017   0.10531
  16        4ZZ         0.00000   0.00000  -1.05947   0.00000   0.00000
  17        4XY        -0.03144  -0.65471   0.00000   0.12160   0.90086
  18        4XZ         0.03618   0.75348   0.00000   0.10552   0.78174
  19        4YZ         0.75348  -0.03618   0.00000   0.78174  -0.10552
  20 4   H  1S          0.01903   0.02959  -0.46343  -0.55771  -0.72192
  21        2S          0.00231   0.00359  -0.21079   0.02000   0.02589
                          21
                        (A1)--V
     EIGENVALUES --     3.66836
   1 1   H  1S          0.13553
   2        2S         -0.56537
   3 2   H  1S          0.13553
   4        2S         -0.56537
   5 3   N  1S         -0.46676
   6        2S          1.16063
   7        2PX         0.00000
   8        2PY         0.00000
   9        2PZ         0.09999
  10        3S          3.20182
  11        3PX         0.00000
  12        3PY         0.00000
  13        3PZ        -0.33460
  14        4XX        -1.50161
  15        4YY        -1.50161
  16        4ZZ        -1.52704
  17        4XY         0.00000
  18        4XZ         0.00000
  19        4YZ         0.00000
  20 4   H  1S          0.13553
  21        2S         -0.56537
      DENSITY MATRIX.
                           1         2         3         4         5
   1 1   H  1S          0.20434
   2        2S          0.12150   0.08559
   3 2   H  1S         -0.03036  -0.04245   0.20434
   4        2S         -0.04245  -0.02894   0.12150   0.08559
   5 3   N  1S         -0.04515   0.00469  -0.04515   0.00469   2.06158
   6        2S          0.09456  -0.01202   0.09456  -0.01202  -0.12148
   7        2PX         0.00000   0.00000   0.23348   0.16310   0.00000
   8        2PY         0.26960   0.18833  -0.13480  -0.09417   0.00000
   9        2PZ        -0.10544  -0.07675  -0.10544  -0.07675  -0.04061
  10        3S          0.07439  -0.03540   0.07439  -0.03540  -0.21424
  11        3PX         0.00000   0.00000   0.11988   0.08374   0.00000
  12        3PY         0.13842   0.09670  -0.06921  -0.04835   0.00000
  13        3PZ        -0.07765  -0.06361  -0.07765  -0.06361  -0.04685
  14        4XX        -0.00681  -0.00627   0.00465   0.00173  -0.02022
  15        4YY         0.00846   0.00440  -0.00299  -0.00360  -0.02022
  16        4ZZ         0.00402   0.00551   0.00402   0.00551  -0.00770
  17        4XY         0.00000   0.00000  -0.00763  -0.00533   0.00000
  18        4XZ         0.00000   0.00000  -0.01719  -0.01201   0.00000
  19        4YZ        -0.01985  -0.01386   0.00992   0.00693   0.00000
  20 4   H  1S         -0.03036  -0.04245  -0.03036  -0.04245  -0.04515
  21        2S         -0.04245  -0.02894  -0.04245  -0.02894   0.00469
                           6         7         8         9        10
   6        2S          0.40178
   7        2PX         0.00000   0.46454
   8        2PY         0.00000   0.00000   0.46454
   9        2PZ         0.08562   0.00000   0.00000   0.63845
  10        3S          0.46740   0.00000   0.00000   0.27878   0.59783
  11        3PX         0.00000   0.23851   0.00000   0.00000   0.00000
  12        3PY         0.00000   0.00000   0.23851   0.00000   0.00000
  13        3PZ         0.10489   0.00000   0.00000   0.52789   0.26817
  14        4XX         0.00786   0.00000  -0.01316   0.00756   0.01145
  15        4YY         0.00786   0.00000   0.01316   0.00756   0.01145
  16        4ZZ        -0.01900   0.00000   0.00000  -0.04529  -0.03352
  17        4XY         0.00000  -0.01519   0.00000   0.00000   0.00000
  18        4XZ         0.00000  -0.03420   0.00000   0.00000   0.00000
  19        4YZ         0.00000   0.00000  -0.03420   0.00000   0.00000
  20 4   H  1S          0.09456  -0.23348  -0.13480  -0.10544   0.07439
  21        2S         -0.01202  -0.16310  -0.09417  -0.07675  -0.03540
                          11        12        13        14        15
  11        3PX         0.12246
  12        3PY         0.00000   0.12246
  13        3PZ         0.00000   0.00000   0.43945
  14        4XX         0.00000  -0.00675   0.00688   0.00074
  15        4YY         0.00000   0.00675   0.00688  -0.00001   0.00074
  16        4ZZ         0.00000   0.00000  -0.03855  -0.00064  -0.00064
  17        4XY        -0.00780   0.00000   0.00000   0.00000   0.00000
  18        4XZ        -0.01756   0.00000   0.00000   0.00000   0.00000
  19        4YZ         0.00000  -0.01756   0.00000   0.00097  -0.00097
  20 4   H  1S         -0.11988  -0.06921  -0.07765   0.00465  -0.00299
  21        2S         -0.08374  -0.04835  -0.06361   0.00173  -0.00360
                          16        17        18        19        20
  16        4ZZ         0.00374
  17        4XY         0.00000   0.00050
  18        4XZ         0.00000   0.00112   0.00252
  19        4YZ         0.00000   0.00000   0.00000   0.00252
  20 4   H  1S          0.00402   0.00763   0.01719   0.00992   0.20434
  21        2S          0.00551   0.00533   0.01201   0.00693   0.12150
                          21
  21        2S          0.08559
    Full Mulliken population analysis:
                           1         2         3         4         5
   1 1   H  1S          0.20434
   2        2S          0.07998   0.08559
   3 2   H  1S         -0.00104  -0.00809   0.20434
   4        2S         -0.00809  -0.01352   0.07998   0.08559
   5 3   N  1S         -0.00153   0.00037  -0.00153   0.00037   2.06158
   6        2S          0.02432  -0.00507   0.02432  -0.00507  -0.02699
   7        2PX         0.00000   0.00000   0.06021   0.02534   0.00000
   8        2PY         0.08028   0.03379   0.02007   0.00845   0.00000
   9        2PZ         0.01330   0.00583   0.01330   0.00583   0.00000
  10        3S          0.03012  -0.02485   0.03012  -0.02485  -0.03682
  11        3PX         0.00000   0.00000   0.05288   0.03593   0.00000
  12        3PY         0.07051   0.04790   0.01763   0.01198   0.00000
  13        3PZ         0.01675   0.01335   0.01675   0.01335   0.00000
  14        4XX        -0.00097  -0.00236   0.00175   0.00074  -0.00102
  15        4YY         0.00385   0.00194  -0.00066  -0.00142  -0.00102
  16        4ZZ         0.00080   0.00214   0.00080   0.00214  -0.00039
  17        4XY         0.00000   0.00000   0.00179   0.00026   0.00000
  18        4XZ         0.00000   0.00000   0.00341   0.00049   0.00000
  19        4YZ         0.00454   0.00065   0.00114   0.00016   0.00000
  20 4   H  1S         -0.00104  -0.00809  -0.00104  -0.00809  -0.00153
  21        2S         -0.00809  -0.01352  -0.00809  -0.01352   0.00037
                           6         7         8         9        10
   6        2S          0.40178
   7        2PX         0.00000   0.46454
   8        2PY         0.00000   0.00000   0.46454
   9        2PZ         0.00000   0.00000   0.00000   0.63845
  10        3S          0.36247   0.00000   0.00000   0.00000   0.59783
  11        3PX         0.00000   0.12386   0.00000   0.00000   0.00000
  12        3PY         0.00000   0.00000   0.12386   0.00000   0.00000
  13        3PZ         0.00000   0.00000   0.00000   0.27413   0.00000
  14        4XX         0.00500   0.00000   0.00000   0.00000   0.00767
  15        4YY         0.00500   0.00000   0.00000   0.00000   0.00767
  16        4ZZ        -0.01208   0.00000   0.00000   0.00000  -0.02247
  17        4XY         0.00000   0.00000   0.00000   0.00000   0.00000
  18        4XZ         0.00000   0.00000   0.00000   0.00000   0.00000
  19        4YZ         0.00000   0.00000   0.00000   0.00000   0.00000
  20 4   H  1S          0.02432   0.06021   0.02007   0.01330   0.03012
  21        2S         -0.00507   0.02534   0.00845   0.00583  -0.02485
                          11        12        13        14        15
  11        3PX         0.12246
  12        3PY         0.00000   0.12246
  13        3PZ         0.00000   0.00000   0.43945
  14        4XX         0.00000   0.00000   0.00000   0.00074
  15        4YY         0.00000   0.00000   0.00000   0.00000   0.00074
  16        4ZZ         0.00000   0.00000   0.00000  -0.00021  -0.00021
  17        4XY         0.00000   0.00000   0.00000   0.00000   0.00000
  18        4XZ         0.00000   0.00000   0.00000   0.00000   0.00000
  19        4YZ         0.00000   0.00000   0.00000   0.00000   0.00000
  20 4   H  1S          0.05288   0.01763   0.01675   0.00175  -0.00066
  21        2S          0.03593   0.01198   0.01335   0.00074  -0.00142
                          16        17        18        19        20
  16        4ZZ         0.00374
  17        4XY         0.00000   0.00050
  18        4XZ         0.00000   0.00000   0.00252
  19        4YZ         0.00000   0.00000   0.00000   0.00252
  20 4   H  1S          0.00080   0.00179   0.00341   0.00114   0.20434
  21        2S          0.00214   0.00026   0.00049   0.00016   0.07998
                          21
  21        2S          0.08559
     Gross orbital populations:
                           1
   1 1   H  1S          0.50804
   2        2S          0.19605
   3 2   H  1S          0.50804
   4        2S          0.19605
   5 3   N  1S          1.99187
   6        2S          0.79292
   7        2PX         0.75951
   8        2PY         0.75951
   9        2PZ         0.96997
  10        3S          0.93216
  11        3PX         0.42393
  12        3PY         0.42393
  13        3PZ         0.80388
  14        4XX         0.01382
  15        4YY         0.01382
  16        4ZZ        -0.02280
  17        4XY         0.00458
  18        4XZ         0.01031
  19        4YZ         0.01031
  20 4   H  1S          0.50804
  21        2S          0.19605
          Condensed to atoms (all electrons):
              1          2          3          4
     1  H    0.449897  -0.030743   0.315677  -0.030743
     2  H   -0.030743   0.449897   0.315677  -0.030743
     3  N    0.315677   0.315677   6.940708   0.315677
     4  H   -0.030743  -0.030743   0.315677   0.449897
 Mulliken atomic charges:
              1
     1  H    0.295913
     2  H    0.295913
     3  N   -0.887738
     4  H    0.295913
 Sum of Mulliken charges=   0.00000
 Atomic charges with hydrogens summed into heavy atoms:
              1
     1  H    0.000000
     2  H    0.000000
     3  N    0.000000
     4  H    0.000000
 Sum of Mulliken charges=   0.00000
 APT atomic charges:
              1
     1  H    0.134925
     2  H    0.134926
     3  N   -0.404778
     4  H    0.134926
 Sum of APT charges=   0.00000
 APT Atomic charges with hydrogens summed into heavy atoms:
              1
     1  H    0.000000
     2  H    0.000000
     3  N   -0.000002
     4  H    0.000000
 Sum of APT charges=   0.00000
 Electronic spatial extent (au):  <R**2>=    26.3142
 Charge=     0.0000 electrons
 Dipole moment (field-independent basis, Debye):
    X=     0.0000    Y=     0.0000    Z=    -1.9113  Tot=     1.9113
 Quadrupole moment (field-independent basis, Debye-Ang):
   XX=    -6.1573   YY=    -6.1573   ZZ=    -8.7870
   XY=     0.0000   XZ=     0.0000   YZ=     0.0000
 Traceless Quadrupole moment (field-independent basis, Debye-Ang):
   XX=     0.8766   YY=     0.8766   ZZ=    -1.7531
   XY=     0.0000   XZ=     0.0000   YZ=     0.0000
 Octapole moment (field-independent basis, Debye-Ang**2):
  XXX=     0.0000  YYY=     0.7781  ZZZ=    -1.7154  XYY=     0.0000
  XXY=    -0.7781  XXZ=    -0.8821  XZZ=     0.0000  YZZ=     0.0000
  YYZ=    -0.8821  XYZ=     0.0000
 Hexadecapole moment (field-independent basis, Debye-Ang**3):
 XXXX=    -9.6376 YYYY=    -9.6376 ZZZZ=    -9.8157 XXXY=     0.0000
 XXXZ=     0.0000 YYYX=     0.0000 YYYZ=    -0.3011 ZZZX=     0.0000
 ZZZY=     0.0000 XXYY=    -3.2125 XXZZ=    -3.2750 YYZZ=    -3.2750
 XXYZ=     0.3011 YYXZ=     0.0000 ZZXY=     0.0000
 N-N= 1.187725502729D+01 E-N=-1.555981383340D+02  KE= 5.603371446745D+01
 Symmetry A'   KE= 5.340715707311D+01
 Symmetry A"   KE= 2.626557394349D+00
 Orbital energies and kinetic energies (alpha):
                           1         2
       1  (A1)--O     -14.30602  21.95963
       2  (A1)--O      -0.84529   1.80026
       3  (E)--O       -0.45226   1.31328
       4  (E)--O       -0.45226   1.31328
       5  (A1)--O      -0.25235   1.63041
       6  (A1)--V       0.07860   1.02365
       7  (E)--V        0.16779   1.05969
       8  (E)--V        0.16779   1.05969
       9  (E)--V        0.68325   1.64926
      10  (E)--V        0.68325   1.64926
      11  (A1)--V       0.72190   2.75473
      12  (E)--V        0.91513   3.25752
      13  (E)--V        0.91513   3.25752
      14  (A1)--V       0.92215   2.83506
      15  (A1)--V       1.15589   2.05108
      16  (E)--V        1.67547   2.79911
      17  (E)--V        1.67547   2.79911
      18  (A1)--V       1.94082   3.07442
      19  (E)--V        2.40297   3.73282
      20  (E)--V        2.40297   3.73282
      21  (A1)--V       3.66836   9.58356
 Total kinetic energy from orbitals= 5.603371446745D+01
  Exact polarizability:   9.582   0.000   9.582   0.000   0.000   5.752
 Approx polarizability:  11.478   0.000  11.478   0.000   0.000   6.631

 *********************************** NBO 5.G ***********************************
             N A T U R A L   A T O M I C   O R B I T A L   A N D
          N A T U R A L   B O N D   O R B I T A L   A N A L Y S I S
 *******************************************************************************
  (c) Copyright 1996-2004 Board of Regents of the University of Wisconsin System
      on behalf of the Theoretical Chemistry Institute.  All Rights Reserved.

          Cite this program as:

          NBO 5.G.  E. D. Glendening, J. K. Badenhoop, A. E. Reed,
          J. E. Carpenter, J. A. Bohmann, C. M. Morales, and F. Weinhold
          (Theoretical Chemistry Institute, University of Wisconsin,
          Madison, WI, 2001); http://www.chem.wisc.edu/~nbo5

       /NRT    / : Natural Resonance Theory Analysis

 Analyzing the SCF density

 Job title: InChI=1/H3N/h1H3                                                

 Storage needed:        2373 in NPA,        1858 in NBO (     6291456 available)


 NATURAL POPULATIONS:  Natural atomic orbital occupancies 
                                                          
  NAO Atom No lang   Type(AO)    Occupancy      Energy    
 ---------------------------------------------------------
   1    H  1  s      Val( 1s)     0.62920       0.13543
   2    H  1  s      Ryd( 2s)     0.00100       0.58793

   3    H  2  s      Val( 1s)     0.62920       0.13543
   4    H  2  s      Ryd( 2s)     0.00100       0.58793

   5    N  3  s      Cor( 1s)     1.99982     -14.17076
   6    N  3  s      Val( 2s)     1.53004      -0.57589
   7    N  3  s      Ryd( 3s)     0.00061       1.23276
   8    N  3  s      Ryd( 4s)     0.00000       3.60835
   9    N  3  px     Val( 2p)     1.36500      -0.16415
  10    N  3  px     Ryd( 3p)     0.00149       0.78316
  11    N  3  py     Val( 2p)     1.36500      -0.16415
  12    N  3  py     Ryd( 3p)     0.00149       0.78316
  13    N  3  pz     Val( 2p)     1.83251      -0.21528
  14    N  3  pz     Ryd( 3p)     0.00481       0.73615
  15    N  3  dxy    Ryd( 3d)     0.00054       2.03892
  16    N  3  dxz    Ryd( 3d)     0.00259       1.95855
  17    N  3  dyz    Ryd( 3d)     0.00259       1.95855
  18    N  3  dx2y2  Ryd( 3d)     0.00054       2.03892
  19    N  3  dz2    Ryd( 3d)     0.00235       1.85041

  20    H  4  s      Val( 1s)     0.62920       0.13543
  21    H  4  s      Ryd( 2s)     0.00100       0.58793


 Summary of Natural Population Analysis:

                                     Natural Population
             Natural    ---------------------------------------------
  Atom No    Charge        Core      Valence    Rydberg      Total
 --------------------------------------------------------------------
    H  1    0.36980      0.00000     0.62920    0.00100     0.63020
    H  2    0.36980      0.00000     0.62920    0.00100     0.63020
    N  3   -1.10939      1.99982     6.09255    0.01702     8.10939
    H  4    0.36980      0.00000     0.62920    0.00100     0.63020
 ====================================================================
 * Total *  0.00000      1.99982     7.98016    0.02003    10.00000

                                 Natural Population      
 --------------------------------------------------------
   Core                       1.99982 ( 99.9908% of   2)
   Valence                    7.98016 ( 99.7520% of   8)
   Natural Minimal Basis      9.97997 ( 99.7997% of  10)
   Natural Rydberg Basis      0.02003 (  0.2003% of  10)
 --------------------------------------------------------

    Atom No         Natural Electron Configuration
 ----------------------------------------------------------------------------
      H  1            1s( 0.63)
      H  2            1s( 0.63)
      N  3      [core]2s( 1.53)2p( 4.56)3p( 0.01)3d( 0.01)
      H  4            1s( 0.63)


 NATURAL BOND ORBITAL ANALYSIS:

                       Occupancies       Lewis Structure    Low   High
           Occ.    -------------------  -----------------   occ   occ
  Cycle   Thresh.   Lewis   Non-Lewis     CR  BD  3C  LP    (L)   (NL)   Dev
 =============================================================================
   1(1)    1.90     9.99698   0.00302      1   3   0   1     0      0    0.00
 -----------------------------------------------------------------------------

 Structure accepted: No low occupancy Lewis orbitals

 --------------------------------------------------------
   Core                      1.99982 ( 99.991% of   2)
   Valence Lewis             7.99717 ( 99.965% of   8)
  ==================       ============================
   Total Lewis               9.99698 ( 99.970% of  10)
  -----------------------------------------------------
   Valence non-Lewis         0.00000 (  0.000% of  10)
   Rydberg non-Lewis         0.00301 (  0.030% of  10)
  ==================       ============================
   Total non-Lewis           0.00302 (  0.030% of  10)
 --------------------------------------------------------


     (Occupancy)   Bond orbital/ Coefficients/ Hybrids
 -------------------------------------------------------------------------------
   1. (1.99939) BD ( 1) H  1- N  3       
               ( 31.47%)   0.5610* H  1 s(100.00%)
                                         1.0000 -0.0001
               ( 68.53%)   0.8278* N  3 s( 24.82%)p 3.02( 75.03%)d 0.01(  0.15%)
                                         0.0001  0.4981  0.0070  0.0000  0.0000
                                         0.0000  0.8151  0.0269 -0.2917  0.0058
                                         0.0000  0.0000 -0.0355 -0.0162 -0.0034
   2. (1.99939) BD ( 1) H  2- N  3       
               ( 31.47%)   0.5610* H  2 s(100.00%)
                                         1.0000 -0.0001
               ( 68.53%)   0.8278* N  3 s( 24.82%)p 3.02( 75.03%)d 0.01(  0.15%)
                                         0.0001  0.4981  0.0070  0.0000  0.7059
                                         0.0233 -0.4076 -0.0135 -0.2917  0.0058
                                        -0.0140 -0.0308  0.0178  0.0081 -0.0034
   3. (1.99939) BD ( 1) N  3- H  4       
               ( 68.53%)   0.8278* N  3 s( 24.82%)p 3.02( 75.03%)d 0.01(  0.15%)
                                         0.0001  0.4981  0.0070  0.0000 -0.7059
                                        -0.0233 -0.4076 -0.0135 -0.2917  0.0058
                                         0.0140  0.0308  0.0178  0.0081 -0.0034
               ( 31.47%)   0.5610* H  4 s(100.00%)
                                         1.0000 -0.0001
   4. (1.99982) CR ( 1) N  3             s(100.00%)
                                         1.0000 -0.0002  0.0000  0.0000  0.0000
                                         0.0000  0.0000  0.0000  0.0000  0.0000
                                         0.0000  0.0000  0.0000  0.0000  0.0000
   5. (1.99900) LP ( 1) N  3             s( 25.50%)p 2.92( 74.38%)d 0.00(  0.11%)
                                         0.0001  0.5048 -0.0142  0.0000  0.0000
                                         0.0000  0.0000  0.0000  0.8611 -0.0483
                                         0.0000  0.0000  0.0000  0.0000 -0.0339
   6. (0.00100) RY*( 1) H  1             s(100.00%)
                                         0.0001  1.0000
   7. (0.00100) RY*( 1) H  2             s(100.00%)
                                         0.0001  1.0000
   8. (0.00000) RY*( 1) N  3             s( 99.97%)p 0.00(  0.03%)d 0.00(  0.00%)
   9. (0.00000) RY*( 2) N  3             s(100.00%)
  10. (0.00000) RY*( 3) N  3             s(  0.00%)p 1.00(100.00%)d 0.00(  0.00%)
  11. (0.00000) RY*( 4) N  3             s(  0.00%)p 1.00(100.00%)d 0.00(  0.00%)
  12. (0.00000) RY*( 5) N  3             s(  0.02%)p99.99( 99.98%)d 0.01(  0.00%)
  13. (0.00000) RY*( 6) N  3             s(  0.00%)p 1.00(  0.04%)d99.99( 99.96%)
  14. (0.00000) RY*( 7) N  3             s(  0.00%)p 1.00(  0.19%)d99.99( 99.81%)
  15. (0.00000) RY*( 8) N  3             s(  0.00%)p 1.00(  0.19%)d99.99( 99.81%)
  16. (0.00000) RY*( 9) N  3             s(  0.00%)p 1.00(  0.04%)d99.99( 99.96%)
  17. (0.00001) RY*(10) N  3             s(  0.05%)p 1.39(  0.07%)d99.99( 99.88%)
  18. (0.00100) RY*( 1) H  4             s(100.00%)
                                         0.0001  1.0000
  19. (0.00000) BD*( 1) H  1- N  3       
               ( 68.53%)   0.8278* H  1 s(100.00%)
               ( 31.47%)  -0.5610* N  3 s( 24.82%)p 3.02( 75.03%)d 0.01(  0.15%)
  20. (0.00000) BD*( 1) H  2- N  3       
               ( 68.53%)   0.8278* H  2 s(100.00%)
               ( 31.47%)  -0.5610* N  3 s( 24.82%)p 3.02( 75.03%)d 0.01(  0.15%)
  21. (0.00000) BD*( 1) N  3- H  4       
               ( 31.47%)   0.5610* N  3 s( 24.82%)p 3.02( 75.03%)d 0.01(  0.15%)
               ( 68.53%)  -0.8278* H  4 s(100.00%)


 NHO DIRECTIONALITY AND BOND BENDING (deviations from line of nuclear centers)

         [Thresholds for printing:  angular deviation  >  1.0 degree]
                                    p- or d-character  > 25.0%
                                    orbital occupancy  >  0.10e

                       Line of Centers        Hybrid 1              Hybrid 2
                       ---------------  -------------------   ------------------
           NBO           Theta   Phi    Theta   Phi    Dev    Theta   Phi    Dev
 ===============================================================================
   1. BD ( 1) H 1- N 3    67.0  270.0     --     --    --     108.9   90.0   4.1
   2. BD ( 1) H 2- N 3    67.0  150.0     --     --    --     108.9  330.0   4.1
   3. BD ( 1) N 3- H 4   113.0  210.0   108.9  210.0   4.1      --     --    --
   5. LP ( 1) N 3          --     --    174.3  205.5   --       --     --    --


 NBOs in the AO basis:                                                         

          AO         1       2       3       4       5       6       7       8
      ---------- ------- ------- ------- ------- ------- ------- ------- -------
   1.  H 1 (s)    0.3148 -0.0387 -0.0387 -0.0069 -0.0422 -0.9611 -0.0449  0.3620
   2.  H 1 (s)    0.1692 -0.0401 -0.0401 -0.0089 -0.0410  2.1426 -0.2753  1.0173
   3.  H 2 (s)   -0.0387  0.3148 -0.0387 -0.0069 -0.0422 -0.0449 -0.9611  0.3620
   4.  H 2 (s)   -0.0401  0.1692 -0.0401 -0.0089 -0.0410 -0.2753  2.1426  1.0173
   5.  N 3 (s)   -0.0483 -0.0483 -0.0483  1.0083 -0.0760  0.0250  0.0250  0.1695
   6.  N 3 (s)    0.2103  0.2103  0.2103 -0.0107  0.2667  0.0664  0.0664  1.4618
   7.  N 3 (px)   0.0000  0.3399 -0.3399  0.0000  0.0000  0.0000  0.0912  0.0000
   8.  N 3 (py)   0.3925 -0.1962 -0.1962  0.0000  0.0000  0.1053 -0.0527  0.0000
   9.  N 3 (pz)  -0.1464 -0.1464 -0.1464 -0.0021  0.5041 -0.0557 -0.0557  0.0024
  10.  N 3 (s)    0.1685  0.1685  0.1685 -0.0316  0.4067 -0.7781 -0.7781 -4.9856
  11.  N 3 (px)   0.0000  0.1823 -0.1823  0.0000  0.0000  0.0000 -0.5783  0.0000
  12.  N 3 (py)   0.2105 -0.1052 -0.1052  0.0000  0.0000 -0.6678  0.3339  0.0000
  13.  N 3 (pz)  -0.0973 -0.0973 -0.0973 -0.0067  0.4399  0.1073  0.1073  0.8402
  14.  N 3 (d1)  -0.0072  0.0090  0.0090 -0.0089  0.0115  0.0270  0.0705  0.4924
  15.  N 3 (d4)   0.0144 -0.0018 -0.0018 -0.0089  0.0115  0.0850  0.0415  0.4924
  16.  N 3 (d6)   0.0036  0.0036  0.0036 -0.0094 -0.0410  0.0398  0.0398  0.5684
  17.  N 3 (d2)   0.0000 -0.0108  0.0108  0.0000  0.0000  0.0000 -0.0290  0.0000
  18.  N 3 (d3)   0.0000 -0.0248  0.0248  0.0000  0.0000  0.0000 -0.0246  0.0000
  19.  N 3 (d5)  -0.0286  0.0143  0.0143  0.0000  0.0000 -0.0284  0.0142  0.0000
  20.  H 4 (s)   -0.0387 -0.0387  0.3148 -0.0069 -0.0422 -0.0449 -0.0449  0.3620
  21.  H 4 (s)   -0.0401 -0.0401  0.1692 -0.0089 -0.0410 -0.2753 -0.2753  1.0173

          AO         9      10      11      12      13      14      15      16
      ---------- ------- ------- ------- ------- ------- ------- ------- -------
   1.  H 1 (s)   -0.1863  0.0000  0.3445 -0.1571  0.0000  0.0000  0.4340  0.5190
   2.  H 1 (s)    0.3808  0.0000  0.8879 -0.2712  0.0000  0.0000  0.1174  0.1417
   3.  H 2 (s)   -0.1863  0.2983 -0.1722 -0.1571  0.4491  0.3762 -0.2170 -0.2595
   4.  H 2 (s)    0.3808  0.7690 -0.4440 -0.2712  0.1227  0.1018 -0.0587 -0.0709
   5.  N 3 (s)    0.4432  0.0000  0.0000 -0.0564  0.0000  0.0000  0.0000  0.0000
   6.  N 3 (s)   -1.3954  0.0000  0.0000  0.0051  0.0000  0.0000  0.0000  0.0000
   7.  N 3 (px)   0.0000  0.8642  0.0000  0.0000 -0.0254 -0.0008  0.0000  0.0000
   8.  N 3 (py)   0.0000  0.0000  0.8642  0.0000  0.0000  0.0000 -0.0008 -0.0254
   9.  N 3 (pz)  -0.0695  0.0000  0.0000  0.9717  0.0000  0.0000  0.0000  0.0000
  10.  N 3 (s)   -2.4159  0.0000  0.0000  0.8185  0.0000  0.0000  0.0000  0.0000
  11.  N 3 (px)   0.0000 -1.8676  0.0000  0.0000 -0.4620 -0.3772  0.0000  0.0000
  12.  N 3 (py)   0.0000  0.0000 -1.8676  0.0000  0.0000  0.0000 -0.3768 -0.4623
  13.  N 3 (pz)   0.1595  0.0000  0.0000 -1.2756  0.0000  0.0000  0.0000  0.0000
  14.  N 3 (d1)   1.4595  0.0000  0.0265 -0.0352  0.0000  0.0000  0.0930  0.9767
  15.  N 3 (d4)   1.4595  0.0000 -0.0265 -0.0352  0.0000  0.0000 -0.0930 -0.9767
  16.  N 3 (d6)   1.4222  0.0000  0.0000 -0.0568  0.0000  0.0000  0.0000  0.0000
  17.  N 3 (d2)   0.0000  0.0307  0.0000  0.0000  1.1277  0.1084  0.0000  0.0000
  18.  N 3 (d3)   0.0000  0.0268  0.0000  0.0000  0.1074  1.0909  0.0000  0.0000
  19.  N 3 (d5)   0.0000  0.0000  0.0268  0.0000  0.0000  0.0000  1.0908  0.1084
  20.  H 4 (s)   -0.1863 -0.2983 -0.1722 -0.1571 -0.4491 -0.3762 -0.2170 -0.2595
  21.  H 4 (s)    0.3808 -0.7690 -0.4440 -0.2712 -0.1227 -0.1018 -0.0587 -0.0709

          AO        17      18      19      20      21
      ---------- ------- ------- ------- ------- -------
   1.  H 1 (s)    0.2148 -0.0449  0.9309 -0.0244 -0.0244
   2.  H 1 (s)    0.0891 -0.2753  0.4752  0.0165  0.0165
   3.  H 2 (s)    0.2148 -0.0449 -0.0244  0.9309 -0.0244
   4.  H 2 (s)    0.0891 -0.2753  0.0165  0.4752  0.0165
   5.  N 3 (s)    0.0321  0.0250  0.0800  0.0800  0.0800
   6.  N 3 (s)    0.0924  0.0664 -0.3652 -0.3652 -0.3652
   7.  N 3 (px)   0.0000 -0.0912  0.0000 -0.5113  0.5113
   8.  N 3 (py)   0.0000 -0.0527 -0.5904  0.2952  0.2952
   9.  N 3 (pz)   0.0244 -0.0557  0.2127  0.2127  0.2127
  10.  N 3 (s)   -0.5781 -0.7781 -0.3458 -0.3458 -0.3458
  11.  N 3 (px)   0.0000  0.5783  0.0000 -0.3523  0.3523
  12.  N 3 (py)   0.0000  0.3339 -0.4068  0.2034  0.2034
  13.  N 3 (pz)   0.2018  0.1073  0.1745  0.1745  0.1745
  14.  N 3 (d1)  -0.4800  0.0705 -0.0091 -0.0268 -0.0268
  15.  N 3 (d4)  -0.4800  0.0415 -0.0328 -0.0150 -0.0150
  16.  N 3 (d6)   1.0800  0.0398 -0.0184 -0.0184 -0.0184
  17.  N 3 (d2)   0.0000  0.0290  0.0000  0.0118 -0.0118
  18.  N 3 (d3)   0.0000  0.0246  0.0000  0.0206 -0.0206
  19.  N 3 (d5)   0.0000  0.0142  0.0238 -0.0119 -0.0119
  20.  H 4 (s)    0.2148 -0.9611 -0.0244 -0.0244  0.9309
  21.  H 4 (s)    0.0891  2.1426  0.0165  0.0165  0.4752


 3-Center, 4-Electron A:-B-:C Hyperbonds (A-B :C <=> A: B-C)
              [threshold for detection: 33.3%]

                                                  NBOs       3-center hybrids
                                              -------------  ----------------
       Hyperbond A:-B-:C   %A-B/%B-C   OCC.   BD(A-B) LP(C)  h(A)  h(B)  h(C)
      -------------------  ---------  ------  ------- -----  ----  ----  ----
      (none detected)


 SECOND ORDER PERTURBATION THEORY ANALYSIS OF FOCK MATRIX IN NBO BASIS

     Threshold for printing:   0.50 kcal/mol
                                                          E(2)  E(j)-E(i) F(i,j)
      Donor NBO (i)              Acceptor NBO (j)       kcal/mol   a.u.    a.u. 
 ===============================================================================

 within unit  1
       None above threshold


 NATURAL BOND ORBITALS (Summary):

                                                     Principal Delocalizations
           NBO                 Occupancy    Energy   (geminal,vicinal,remote)
 ===============================================================================
 Molecular unit  1  (H3N)
   1. BD ( 1) H  1- N  3        1.99939    -0.60556
   2. BD ( 1) H  2- N  3        1.99939    -0.60556
   3. BD ( 1) N  3- H  4        1.99939    -0.60556
   4. CR ( 1) N  3              1.99982   -14.17035
   5. LP ( 1) N  3              1.99900    -0.31871
   6. RY*( 1) H  1              0.00100     0.58789
   7. RY*( 1) H  2              0.00100     0.58789
   8. RY*( 1) N  3              0.00000     1.23240
   9. RY*( 2) N  3              0.00000     3.60835
  10. RY*( 3) N  3              0.00000     0.78137
  11. RY*( 4) N  3              0.00000     0.78137
  12. RY*( 5) N  3              0.00000     0.73852
  13. RY*( 6) N  3              0.00000     2.03613
  14. RY*( 7) N  3              0.00000     1.95748
  15. RY*( 8) N  3              0.00000     1.95693
  16. RY*( 9) N  3              0.00000     2.03668
  17. RY*(10) N  3              0.00001     1.85207
  18. RY*( 1) H  4              0.00100     0.58789
  19. BD*( 1) H  1- N  3        0.00000     0.47651
  20. BD*( 1) H  2- N  3        0.00000     0.47651
  21. BD*( 1) N  3- H  4        0.00000     0.47651
          -------------------------------
                 Total Lewis    9.99698  ( 99.9698%)
           Valence non-Lewis    0.00000  (  0.0000%)
           Rydberg non-Lewis    0.00301  (  0.0301%)
          -------------------------------
               Total unit  1   10.00000  (100.0000%)
              Charge unit  1    0.00000


 NATURAL RESONANCE THEORY ANALYSIS:

 Maximum reference structures :    20
 Maximum resonance structures :  1295
 Memory requirements :    6235811 words of   6238718 available

   1 candidate reference structure(s) calculated by SR LEWIS
 Total of   1 candidate reference structures.
 Initial loops searched    1 bonding pattern(s); all but  1 were discarded
 Reference   1:  rho*=0.00302, f(w)=0.00000 converged after   0 iterations

                                                fractional accuracy f(w)
                  non-Lewis             -------------------------------------
  Ref     Wgt      density      d(0)      all NBOs     val+core     valence
 ----------------------------------------------------------------------------
   1    1.00000    0.00302    0.00050     0.00000      0.00000      0.00000


 TOPO matrix for the leading resonance structure:

     Atom  1   2   3   4
     ---- --- --- --- ---
   1.  H   0   0   1   0
   2.  H   0   0   1   0
   3.  N   1   1   1   1
   4.  H   0   0   1   0

         Resonance
    RS   Weight(%)                  Added(Removed)
 ---------------------------------------------------------------------------
    1*    100.00                                                            
 ---------------------------------------------------------------------------
          100.00   * Total *                [* = reference structure]


 Natural Bond Order:  (total/covalent/ionic)                                   

     Atom       1      2      3      4
     ----   ------ ------ ------ ------
   1.  H  t 0.0000 0.0000 1.0000 0.0000
          c   ---  0.0000 0.6294 0.0000                                   
          i   ---  0.0000 0.3706 0.0000                                   

   2.  H  t 0.0000 0.0000 1.0000 0.0000
          c 0.0000   ---  0.6294 0.0000                                   
          i 0.0000   ---  0.3706 0.0000                                   

   3.  N  t 1.0000 1.0000 1.0000 1.0000
          c 0.6294 0.6294   ---  0.6294                                   
          i 0.3706 0.3706   ---  0.3706                                   

   4.  H  t 0.0000 0.0000 1.0000 0.0000
          c 0.0000 0.0000 0.6294   ---                                    
          i 0.0000 0.0000 0.3706   ---                                    


 Natural Atomic Valencies:                                                     

                      Co-    Electro-
     Atom  Valency  Valency  Valency
     ----  -------  -------  -------
   1.  H    1.0000   0.6294   0.3706
   2.  H    1.0000   0.6294   0.3706
   3.  N    3.0000   1.8882   1.1118
   4.  H    1.0000   0.6294   0.3706


 $NRTSTR
   STR        ! Wgt =100.00%
     LONE 3 1 END
     BOND S 1 3 S 2 3 S 3 4 END
   END
 $END
 Full mass-weighted force constant matrix:
 Low frequencies ---   -8.0093   -7.9546   -0.0047    0.0677    0.1893   32.2042
 Low frequencies --- 1131.3925 1726.9607 1726.9610
 Diagonal vibrational polarizability:
        0.1395821       0.1395829       3.2903818
 Harmonic frequencies (cm**-1), IR intensities (KM/Mole), Raman scattering
 activities (A**4/AMU), depolarization ratios for plane and unpolarized
 incident light, reduced masses (AMU), force constants (mDyne/A),
 and normal coordinates:
                     1                      2                      3
                    A1                      E                      E
 Frequencies --  1131.3925              1726.9607              1726.9610
 Red. masses --     1.1798                 1.0643                 1.0643
 Frc consts  --     0.8898                 1.8701                 1.8701
 IR Inten    --   156.4253                15.3646                15.3647
 Atom AN      X      Y      Z        X      Y      Z        X      Y      Z
   1   1     0.00   0.21   0.53     0.76   0.00   0.00     0.00  -0.15  -0.26
   2   1     0.18  -0.11   0.53     0.08   0.39  -0.22     0.39   0.53   0.13
   3   7     0.00   0.00  -0.12    -0.07   0.00   0.00     0.00  -0.07   0.00
   4   1    -0.18  -0.11   0.53     0.08  -0.39   0.22    -0.39   0.53   0.13
                     4                      5                      6
                    A1                      E                      E
 Frequencies --  3436.1618              3567.8705              3567.8706
 Red. masses --     1.0274                 1.0886                 1.0886
 Frc consts  --     7.1471                 8.1649                 8.1649
 IR Inten    --     0.7735                 0.4453                 0.4454
 Atom AN      X      Y      Z        X      Y      Z        X      Y      Z
   1   1     0.00   0.55  -0.18     0.00   0.75  -0.31     0.02   0.00   0.00
   2   1     0.47  -0.27  -0.18    -0.34   0.17   0.15    -0.56   0.34   0.27
   3   7     0.00   0.00   0.04     0.00  -0.08   0.00     0.08   0.00   0.00
   4   1    -0.47  -0.27  -0.18     0.34   0.17   0.15    -0.56  -0.34  -0.27

 -------------------
 - Thermochemistry -
 -------------------
 Temperature   298.150 Kelvin.  Pressure   1.00000 Atm.
 Atom  1 has atomic number  1 and mass   1.00783
 Atom  2 has atomic number  1 and mass   1.00783
 Atom  3 has atomic number  7 and mass  14.00307
 Atom  4 has atomic number  1 and mass   1.00783
 Molecular mass:    17.02655 amu.
 Principal axes and moments of inertia in atomic units:
                           1         2         3
     EIGENVALUES --     6.16066   6.16066   9.51418
           X           -0.44803   0.89402   0.00000
           Y            0.89402   0.44803   0.00000
           Z            0.00000   0.00000   1.00000
 This molecule is an oblate symmetric top.
 Rotational symmetry number  3.
 Rotational temperatures (Kelvin)     14.05918    14.05918     9.10365
 Rotational constants (GHZ):         292.94612   292.94612   189.68955
 Zero-point vibrational energy      90660.3 (Joules/Mol)
                                   21.66833 (Kcal/Mol)
 Vibrational temperatures:   1627.82  2484.71  2484.71  4943.86  5133.36
          (Kelvin)           5133.36
 
 Zero-point correction=                           0.034531 (Hartree/Particle)
 Thermal correction to Energy=                    0.037389
 Thermal correction to Enthalpy=                  0.038333
 Thermal correction to Gibbs Free Energy=         0.016489
 Sum of electronic and zero-point Energies=            -56.513417
 Sum of electronic and thermal Energies=               -56.510559
 Sum of electronic and thermal Enthalpies=             -56.509614
 Sum of electronic and thermal Free Energies=          -56.531459
 
                     E (Thermal)             CV                S
                      KCal/Mol        Cal/Mol-Kelvin    Cal/Mol-Kelvin
 Total                   23.462              6.282             45.976
 Electronic               0.000              0.000              0.000
 Translational            0.889              2.981             34.441
 Rotational               0.889              2.981             11.471
 Vibrational             21.685              0.321              0.064
                       Q            Log10(Q)             Ln(Q)
 Total Bot       0.260475D-07         -7.584234        -17.463343
 Total V=0       0.198950D+09          8.298744         19.108564
 Vib (Bot)       0.131548D-15        -15.880917        -36.567163
 Vib (V=0)       0.100476D+01          0.002061          0.004744
 Electronic      0.100000D+01          0.000000          0.000000
 Translational   0.276150D+07          6.441145         14.831285
 Rotational      0.717031D+02          1.855538          4.272534
 ***** Axes restored to original set *****
 -------------------------------------------------------------------
 Center     Atomic                   Forces (Hartrees/Bohr)
 Number     Number              X              Y              Z
 -------------------------------------------------------------------
    1          1           0.000000000   -0.000026825   -0.000013750
    2          1          -0.000023231    0.000013412   -0.000013750
    3          7           0.000000000    0.000000000    0.000041249
    4          1           0.000023231    0.000013412   -0.000013750
 -------------------------------------------------------------------
 Cartesian Forces:  Max     0.000041249 RMS     0.000019208

 GradGradGradGradGradGradGradGradGradGradGradGradGradGradGradGradGradGrad
 Berny optimization.
 Search for a local minimum.
 Step number   1 out of a maximum of   2
 All quantities printed in internal units (Hartrees-Bohrs-Radians)
 Second derivative matrix not updated -- analytic derivatives used.
 The second derivative matrix:
                          X1        Y1        Z1        X2        Y2
           X1           0.06217
           Y1           0.00000   0.39154
           Z1           0.00000  -0.13933   0.07633
           X2           0.00085  -0.00311   0.00212   0.30920
           Y2           0.03538  -0.01778  -0.01927  -0.14262   0.14451
           Z2          -0.01563   0.01147   0.00098  -0.12066   0.06966
           X3          -0.06387   0.00000   0.00000  -0.28295   0.12649
           Y3           0.00000  -0.35598   0.17787   0.12649  -0.13689
           Z3           0.00000   0.11639  -0.07830   0.10080  -0.05819
           X4           0.00085   0.00311  -0.00212  -0.02710  -0.01924
           Y4          -0.03538  -0.01778  -0.01927   0.01924   0.01017
           Z4           0.01563   0.01147   0.00098   0.01775   0.00780
                          Z2        X3        Y3        Z3        X4
           Z2           0.07633
           X3           0.15404   0.62977
           Y3          -0.08893   0.00000   0.62977
           Z3          -0.07830   0.00000   0.00000   0.23489
           X4          -0.01775  -0.28295  -0.12649  -0.10080   0.30920
           Y4           0.00780  -0.12649  -0.13689  -0.05819   0.14262
           Z4           0.00098  -0.15404  -0.08893  -0.07830   0.12066
                          Y4        Z4
           Y4           0.14451
           Z4           0.06966   0.07633
     Eigenvalues ---    0.10509   0.14241   0.14241   0.54842   0.85606
     Eigenvalues ---    0.85606
 Angle between quadratic step and forces=  21.34 degrees.
 Linear search not attempted -- first point.
 TrRot=  0.000000  0.000000  0.000105  0.000000  0.000000  0.000000
 Variable       Old X    -DE/DX   Delta X   Delta X   Delta X     New X
                                 (Linear)    (Quad)   (Total)
    X1        0.00000   0.00000   0.00000   0.00000   0.00000   0.00000
    Y1        1.77391  -0.00003   0.00000  -0.00020  -0.00020   1.77371
    Z1       -0.52591  -0.00001   0.00000  -0.00022  -0.00012  -0.52603
    X2        1.53625  -0.00002   0.00000  -0.00018  -0.00018   1.53608
    Y2       -0.88696   0.00001   0.00000   0.00010   0.00010  -0.88685
    Z2       -0.52591  -0.00001   0.00000  -0.00022  -0.00012  -0.52603
    X3        0.00000   0.00000   0.00000   0.00000   0.00000   0.00000
    Y3        0.00000   0.00000   0.00000   0.00000   0.00000   0.00000
    Z3        0.22539   0.00004   0.00000   0.00025   0.00036   0.22575
    X4       -1.53625   0.00002   0.00000   0.00018   0.00018  -1.53608
    Y4       -0.88696   0.00001   0.00000   0.00010   0.00010  -0.88685
    Z4       -0.52591  -0.00001   0.00000  -0.00022  -0.00012  -0.52603
         Item               Value     Threshold  Converged?
 Maximum Force            0.000041     0.000450     YES
 RMS     Force            0.000019     0.000300     YES
 Maximum Displacement     0.000360     0.001800     YES
 RMS     Displacement     0.000158     0.001200     YES
 Predicted change in Energy=-1.813201D-08
 Optimization completed.
    -- Stationary point found.
 GradGradGradGradGradGradGradGradGradGradGradGradGradGradGradGradGradGrad

 1\1\GINC-SUN\Freq\RB3LYP\6-31G(d)\H3N1\XAVIER\09-Sep-2008\0\\# B3LYP/6
 -31G* POP=(FULL,NBOREAD) GFPRINT FREQ GUESS=READ GEOM=CHECK\\InChI=1/H
 3N/h1H3\\0,1\H,0.0000000015,0.938714869,-0.2783006487\H,0.8129509227,-
 0.4693574358,-0.2783006487\N,0.,0.,0.1192717066\H,-0.8129509242,-0.469
 3574332,-0.2783006487\\Version=x86-Linux-G03RevB.05\State=1-A1\HF=-56.
 5479476\RMSD=3.615e-11\RMSF=1.921e-05\Dipole=0.,0.,-0.7519437\DipoleDe
 riv=0.1694678,0.,0.,0.,0.0423252,0.0942674,0.,0.1928879,0.1929817,0.07
 41102,0.0550531,0.0816377,0.0550536,0.1376824,-0.0471326,0.1670464,-0.
 0964441,0.1929847,-0.3176867,0.,0.,0.,-0.3176905,-0.0000042,0.,0.00000
 04,-0.5789572,0.0741102,-0.0550531,-0.0816377,-0.0550536,0.1376824,-0.
 0471326,-0.1670464,-0.0964441,0.1929847\Polar=9.5819172,0.,9.5818805,0
 .,0.0000213,5.7515295\PG=C03V [C3(N1),3SGV(H1)]\NImag=0\\0.06216780,0.
 ,0.39154146,0.,-0.13932694,0.07633368,0.00084958,-0.00310823,0.0021169
 7,0.30919804,0.03537926,-0.01778211,-0.01927088,-0.14262298,0.14451122
 ,-0.01563059,0.01146879,0.00098204,-0.12066067,0.06966347,0.07633368,-
 0.06386672,0.,0.,-0.28295000,0.12648786,0.15403872,0.62976713,0.,-0.35
 597749,0.17786910,0.12648765,-0.13689451,-0.08893414,0.,0.62976670,0.,
 0.11639028,-0.07829775,0.10079637,-0.05819473,-0.07829738,0.,-0.000001
 64,0.23489178,0.00084958,0.00310823,-0.00211697,-0.02709795,-0.0192437
 4,-0.01774755,-0.28295000,-0.12648765,-0.10079637,0.30919804,-0.035379
 26,-0.01778211,-0.01927088,0.01924374,0.01016542,0.00780209,-0.1264878
 6,-0.13689451,-0.05819473,0.14262297,0.14451122,0.01563059,0.01146879,
 0.00098204,0.01774755,0.00780209,0.00098204,-0.15403872,-0.08893414,-0
 .07829738,0.12066067,0.06966347,0.07633368\\0.,0.00002682,0.00001375,0
 .00002323,-0.00001341,0.00001375,0.,0.,-0.00004125,-0.00002323,-0.0000
 1341,0.00001375\\\@


 KEEP CLOSE TO NATURES HEART, YOURSELF;
 AND BREAK CLEAR AWAY, ONCE IN A WHILE, AND
 CLIMB A MOUNTAIN OR SPEND A WEEK IN THE
 WOODS.  WASH YOUR SPIRIT CLEAN...
                                         -- JOHN MUIR
 Job cpu time:  0 days  0 hours  0 minutes  9.6 seconds.
 File lengths (MBytes):  RWF=      7 Int=      0 D2E=      0 Chk=      4 Scr=      1
 Normal termination of Gaussian 03 at Tue Sep  9 15:25:34 2008.
