 Entering Gaussian System, Link 0=g03
 Input=sf6.nbo.com
 Output=sf6.nbo.log
 Initial command:
 /gaussian/g03/l1.exe /scratch/Gau-30722.inp -scrdir=/scratch/
 Entering Link 1 = /gaussian/g03/l1.exe PID=     30723.
  
 Copyright (c) 1988,1990,1992,1993,1995,1998,2003, Gaussian, Inc.
                  All Rights Reserved.
  
 This is the Gaussian(R) 03 program.  It is based on the
 the Gaussian(R) 98 system (copyright 1998, Gaussian, Inc.),
 the Gaussian(R) 94 system (copyright 1995, Gaussian, Inc.),
 the Gaussian 92(TM) system (copyright 1992, Gaussian, Inc.),
 the Gaussian 90(TM) system (copyright 1990, Gaussian, Inc.),
 the Gaussian 88(TM) system (copyright 1988, Gaussian, Inc.),
 the Gaussian 86(TM) system (copyright 1986, Carnegie Mellon
 University), and the Gaussian 82(TM) system (copyright 1983,
 Carnegie Mellon University). Gaussian is a federally registered
 trademark of Gaussian, Inc.
  
 This software contains proprietary and confidential information,
 including trade secrets, belonging to Gaussian, Inc.
  
 This software is provided under written license and may be
 used, copied, transmitted, or stored only in accord with that
 written license.
  
 The following legend is applicable only to US Government
 contracts under DFARS:
  
                    RESTRICTED RIGHTS LEGEND
  
 Use, duplication or disclosure by the US Government is subject
 to restrictions as set forth in subparagraph (c)(1)(ii) of the
 Rights in Technical Data and Computer Software clause at DFARS
 252.227-7013.
  
 Gaussian, Inc.
 Carnegie Office Park, Building 6, Pittsburgh, PA 15106 USA
  
 The following legend is applicable only to US Government
 contracts under FAR:
  
                    RESTRICTED RIGHTS LEGEND
  
 Use, reproduction and disclosure by the US Government is subject
 to restrictions as set forth in subparagraph (c) of the
 Commercial Computer Software - Restricted Rights clause at FAR
 52.227-19.
  
 Gaussian, Inc.
 Carnegie Office Park, Building 6, Pittsburgh, PA 15106 USA
  
  
 ---------------------------------------------------------------
 Warning -- This program may not be used in any manner that
 competes with the business of Gaussian, Inc. or will provide
 assistance to any competitor of Gaussian, Inc.  The licensee
 of this program is prohibited from giving any competitor of
 Gaussian, Inc. access to this program.  By using this program,
 the user acknowledges that Gaussian, Inc. is engaged in the
 business of creating and licensing software in the field of
 computational chemistry and represents and warrants to the
 licensee that it is not a competitor of Gaussian, Inc. and that
 it will not use this program in any manner prohibited above.
 ---------------------------------------------------------------
  

 Cite this work as:
 Gaussian 03, Revision B.05,
 M. J. Frisch, G. W. Trucks, H. B. Schlegel, G. E. Scuseria, 
 M. A. Robb, J. R. Cheeseman, J. A. Montgomery, Jr., T. Vreven, 
 K. N. Kudin, J. C. Burant, J. M. Millam, S. S. Iyengar, J. Tomasi, 
 V. Barone, B. Mennucci, M. Cossi, G. Scalmani, N. Rega, 
 G. A. Petersson, H. Nakatsuji, M. Hada, M. Ehara, K. Toyota, 
 R. Fukuda, J. Hasegawa, M. Ishida, T. Nakajima, Y. Honda, O. Kitao, 
 H. Nakai, M. Klene, X. Li, J. E. Knox, H. P. Hratchian, J. B. Cross, 
 C. Adamo, J. Jaramillo, R. Gomperts, R. E. Stratmann, O. Yazyev, 
 A. J. Austin, R. Cammi, C. Pomelli, J. W. Ochterski, P. Y. Ayala, 
 K. Morokuma, G. A. Voth, P. Salvador, J. J. Dannenberg, 
 V. G. Zakrzewski, S. Dapprich, A. D. Daniels, M. C. Strain, 
 O. Farkas, D. K. Malick, A. D. Rabuck, K. Raghavachari, 
 J. B. Foresman, J. V. Ortiz, Q. Cui, A. G. Baboul, S. Clifford, 
 J. Cioslowski, B. B. Stefanov, G. Liu, A. Liashenko, P. Piskorz, 
 I. Komaromi, R. L. Martin, D. J. Fox, T. Keith, M. A. Al-Laham, 
 C. Y. Peng, A. Nanayakkara, M. Challacombe, P. M. W. Gill, 
 B. Johnson, W. Chen, M. W. Wong, C. Gonzalez, and J. A. Pople, 
 Gaussian, Inc., Pittsburgh PA, 2003.
 
 **********************************************
 Gaussian 03:  x86-Linux-G03RevB.05  8-Nov-2003
                   3-Oct-2008 
 **********************************************
 %chk=../CHK/sf6.chk
 --------------------------------------------------------------------
 # b3lyp/6-31g* pop=(full,nboread) gfprint freq guess=read geom=check
 --------------------------------------------------------------------
 1/10=4,29=2,30=1,38=1/1,3;
 2/40=1/2;
 3/5=1,6=6,7=1,11=2,16=1,24=100,25=1,30=1,74=-5/1,2,3;
 4/5=1/1;
 5/5=2,38=6/2;
 8/6=4,10=90,11=11/1;
 11/6=1,8=1,9=11,15=111,16=1/1,2,10;
 10/6=1/2;
 6/7=3,18=1,28=1,40=1/1,7;
 7/8=1,10=1,25=1/1,2,3,16;
 1/10=4,30=1/3;
 99//99;
 --------------------------
 InChI=1/F6S/c1-7(2,3,4,5)6
 --------------------------
 No Z-matrix found on checkpoint file.
 Cartesian coordinates read from the checkpoint file:
 ../CHK/sf6.chk
 Charge =  0 Multiplicity = 1
  F                                                 0.000000000000      0.000000000000      1.599750596520
  S                                                 0.000000000000      0.000000000000      0.000000000000
  F                                                 0.000000000000      1.599750596520      0.000000000000
  F                                                 0.000000000000      0.000000000000     -1.599750596520
  F                                                 1.599750596520      0.000000000000      0.000000000000
  F                                                -1.599750596520      0.000000000000      0.000000000000
  F                                                 0.000000000000     -1.599750596520      0.000000000000
 Recover connectivity data from disk.

 GradGradGradGradGradGradGradGradGradGradGradGradGradGradGradGradGradGrad
 Berny optimization.
 Initialization pass.
 Trust Radius=3.00D-01 FncErr=1.00D-07 GrdErr=1.00D-07
 Number of steps in this run=   2 maximum allowed number of steps=   2.
 GradGradGradGradGradGradGradGradGradGradGradGradGradGradGradGradGradGrad

                          Input orientation:                          
 ---------------------------------------------------------------------
 Center     Atomic     Atomic              Coordinates (Angstroms)
 Number     Number      Type              X           Y           Z
 ---------------------------------------------------------------------
    1          9             0        0.000000    0.000000    1.599751
    2         16             0        0.000000    0.000000    0.000000
    3          9             0        0.000000    1.599751    0.000000
    4          9             0        0.000000    0.000000   -1.599751
    5          9             0        1.599751    0.000000    0.000000
    6          9             0       -1.599751    0.000000    0.000000
    7          9             0        0.000000   -1.599751    0.000000
 ---------------------------------------------------------------------
                    Distance matrix (angstroms):
                    1          2          3          4          5
     1  F    0.000000
     2  S    1.599751   0.000000
     3  F    2.262389   1.599751   0.000000
     4  F    3.199501   1.599751   2.262389   0.000000
     5  F    2.262389   1.599751   2.262389   2.262389   0.000000
     6  F    2.262389   1.599751   2.262389   2.262389   3.199501
     7  F    2.262389   1.599751   3.199501   2.262389   2.262389
                    6          7
     6  F    0.000000
     7  F    2.262389   0.000000
 Stoichiometry    F6S
 Framework group  OH[O(S),3C4(F.F)]
 Deg. of freedom     1
 Full point group                 OH      NOp  48
 Largest Abelian subgroup         D2H     NOp   8
 Largest concise Abelian subgroup D2H     NOp   8
                         Standard orientation:                         
 ---------------------------------------------------------------------
 Center     Atomic     Atomic              Coordinates (Angstroms)
 Number     Number      Type              X           Y           Z
 ---------------------------------------------------------------------
    1          9             0        0.000000    0.000000    1.599751
    2         16             0        0.000000    0.000000    0.000000
    3          9             0        0.000000    1.599751    0.000000
    4          9             0        0.000000    0.000000   -1.599751
    5          9             0        1.599751    0.000000    0.000000
    6          9             0       -1.599751    0.000000    0.000000
    7          9             0        0.000000   -1.599751    0.000000
 ---------------------------------------------------------------------
 Rotational constants (GHZ):      2.5985767      2.5985767      2.5985767
 Standard basis: 6-31G(d) (6D, 7F)
 AO basis set:
 Atom F1       Shell     1 S   6     bf    1 -     1          0.000000000000          0.000000000000          3.023090510000
      0.7001713090D+04  0.1819616901D-02
      0.1051366090D+04  0.1391607961D-01
      0.2392856900D+03  0.6840532453D-01
      0.6739744530D+02  0.2331857601D+00
      0.2151995730D+02  0.4712674392D+00
      0.7403101300D+01  0.3566185462D+00
 Atom F1       Shell     2 SP   3    bf    2 -     5          0.000000000000          0.000000000000          3.023090510000
      0.2084795280D+02 -0.1085069751D+00  0.7162872424D-01
      0.4808308340D+01 -0.1464516581D+00  0.3459121027D+00
      0.1344069860D+01  0.1128688581D+01  0.7224699564D+00
 Atom F1       Shell     3 SP   1    bf    6 -     9          0.000000000000          0.000000000000          3.023090510000
      0.3581513930D+00  0.1000000000D+01  0.1000000000D+01
 Atom F1       Shell     4 D   1     bf   10 -    15          0.000000000000          0.000000000000          3.023090510000
      0.8000000000D+00  0.1000000000D+01
 Atom S2       Shell     5 S   6     bf   16 -    16          0.000000000000          0.000000000000          0.000000000000
      0.2191710000D+05  0.1869240849D-02
      0.3301490000D+04  0.1423030646D-01
      0.7541460000D+03  0.6969623166D-01
      0.2127110000D+03  0.2384871083D+00
      0.6798960000D+02  0.4833072195D+00
      0.2305150000D+02  0.3380741536D+00
 Atom S2       Shell     6 SP   6    bf   17 -    20          0.000000000000          0.000000000000          0.000000000000
      0.4237350000D+03 -0.2376770499D-02  0.4061009982D-02
      0.1007100000D+03 -0.3169300665D-01  0.3068129986D-01
      0.3215990000D+02 -0.1133170238D+00  0.1304519994D+00
      0.1180790000D+02  0.5609001177D-01  0.3272049985D+00
      0.4631100000D+01  0.5922551243D+00  0.4528509980D+00
      0.1870250000D+01  0.4550060955D+00  0.2560419989D+00
 Atom S2       Shell     7 SP   3    bf   21 -    24          0.000000000000          0.000000000000          0.000000000000
      0.2615840000D+01 -0.2503731142D+00 -0.1451048955D-01
      0.9221670000D+00  0.6695676310D-01  0.3102627765D+00
      0.3412870000D+00  0.1054506269D+01  0.7544824565D+00
 Atom S2       Shell     8 SP   1    bf   25 -    28          0.000000000000          0.000000000000          0.000000000000
      0.1171670000D+00  0.1000000000D+01  0.1000000000D+01
 Atom S2       Shell     9 D   1     bf   29 -    34          0.000000000000          0.000000000000          0.000000000000
      0.6500000000D+00  0.1000000000D+01
 Atom F3       Shell    10 S   6     bf   35 -    35          0.000000000000          3.023090510000          0.000000000000
      0.7001713090D+04  0.1819616901D-02
      0.1051366090D+04  0.1391607961D-01
      0.2392856900D+03  0.6840532453D-01
      0.6739744530D+02  0.2331857601D+00
      0.2151995730D+02  0.4712674392D+00
      0.7403101300D+01  0.3566185462D+00
 Atom F3       Shell    11 SP   3    bf   36 -    39          0.000000000000          3.023090510000          0.000000000000
      0.2084795280D+02 -0.1085069751D+00  0.7162872424D-01
      0.4808308340D+01 -0.1464516581D+00  0.3459121027D+00
      0.1344069860D+01  0.1128688581D+01  0.7224699564D+00
 Atom F3       Shell    12 SP   1    bf   40 -    43          0.000000000000          3.023090510000          0.000000000000
      0.3581513930D+00  0.1000000000D+01  0.1000000000D+01
 Atom F3       Shell    13 D   1     bf   44 -    49          0.000000000000          3.023090510000          0.000000000000
      0.8000000000D+00  0.1000000000D+01
 Atom F4       Shell    14 S   6     bf   50 -    50          0.000000000000          0.000000000000         -3.023090510000
      0.7001713090D+04  0.1819616901D-02
      0.1051366090D+04  0.1391607961D-01
      0.2392856900D+03  0.6840532453D-01
      0.6739744530D+02  0.2331857601D+00
      0.2151995730D+02  0.4712674392D+00
      0.7403101300D+01  0.3566185462D+00
 Atom F4       Shell    15 SP   3    bf   51 -    54          0.000000000000          0.000000000000         -3.023090510000
      0.2084795280D+02 -0.1085069751D+00  0.7162872424D-01
      0.4808308340D+01 -0.1464516581D+00  0.3459121027D+00
      0.1344069860D+01  0.1128688581D+01  0.7224699564D+00
 Atom F4       Shell    16 SP   1    bf   55 -    58          0.000000000000          0.000000000000         -3.023090510000
      0.3581513930D+00  0.1000000000D+01  0.1000000000D+01
 Atom F4       Shell    17 D   1     bf   59 -    64          0.000000000000          0.000000000000         -3.023090510000
      0.8000000000D+00  0.1000000000D+01
 Atom F5       Shell    18 S   6     bf   65 -    65          3.023090510000          0.000000000000          0.000000000000
      0.7001713090D+04  0.1819616901D-02
      0.1051366090D+04  0.1391607961D-01
      0.2392856900D+03  0.6840532453D-01
      0.6739744530D+02  0.2331857601D+00
      0.2151995730D+02  0.4712674392D+00
      0.7403101300D+01  0.3566185462D+00
 Atom F5       Shell    19 SP   3    bf   66 -    69          3.023090510000          0.000000000000          0.000000000000
      0.2084795280D+02 -0.1085069751D+00  0.7162872424D-01
      0.4808308340D+01 -0.1464516581D+00  0.3459121027D+00
      0.1344069860D+01  0.1128688581D+01  0.7224699564D+00
 Atom F5       Shell    20 SP   1    bf   70 -    73          3.023090510000          0.000000000000          0.000000000000
      0.3581513930D+00  0.1000000000D+01  0.1000000000D+01
 Atom F5       Shell    21 D   1     bf   74 -    79          3.023090510000          0.000000000000          0.000000000000
      0.8000000000D+00  0.1000000000D+01
 Atom F6       Shell    22 S   6     bf   80 -    80         -3.023090510000          0.000000000000          0.000000000000
      0.7001713090D+04  0.1819616901D-02
      0.1051366090D+04  0.1391607961D-01
      0.2392856900D+03  0.6840532453D-01
      0.6739744530D+02  0.2331857601D+00
      0.2151995730D+02  0.4712674392D+00
      0.7403101300D+01  0.3566185462D+00
 Atom F6       Shell    23 SP   3    bf   81 -    84         -3.023090510000          0.000000000000          0.000000000000
      0.2084795280D+02 -0.1085069751D+00  0.7162872424D-01
      0.4808308340D+01 -0.1464516581D+00  0.3459121027D+00
      0.1344069860D+01  0.1128688581D+01  0.7224699564D+00
 Atom F6       Shell    24 SP   1    bf   85 -    88         -3.023090510000          0.000000000000          0.000000000000
      0.3581513930D+00  0.1000000000D+01  0.1000000000D+01
 Atom F6       Shell    25 D   1     bf   89 -    94         -3.023090510000          0.000000000000          0.000000000000
      0.8000000000D+00  0.1000000000D+01
 Atom F7       Shell    26 S   6     bf   95 -    95          0.000000000000         -3.023090510000          0.000000000000
      0.7001713090D+04  0.1819616901D-02
      0.1051366090D+04  0.1391607961D-01
      0.2392856900D+03  0.6840532453D-01
      0.6739744530D+02  0.2331857601D+00
      0.2151995730D+02  0.4712674392D+00
      0.7403101300D+01  0.3566185462D+00
 Atom F7       Shell    27 SP   3    bf   96 -    99          0.000000000000         -3.023090510000          0.000000000000
      0.2084795280D+02 -0.1085069751D+00  0.7162872424D-01
      0.4808308340D+01 -0.1464516581D+00  0.3459121027D+00
      0.1344069860D+01  0.1128688581D+01  0.7224699564D+00
 Atom F7       Shell    28 SP   1    bf  100 -   103          0.000000000000         -3.023090510000          0.000000000000
      0.3581513930D+00  0.1000000000D+01  0.1000000000D+01
 Atom F7       Shell    29 D   1     bf  104 -   109          0.000000000000         -3.023090510000          0.000000000000
      0.8000000000D+00  0.1000000000D+01
 There are    31 symmetry adapted basis functions of AG  symmetry.
 There are     8 symmetry adapted basis functions of B1G symmetry.
 There are     8 symmetry adapted basis functions of B2G symmetry.
 There are     8 symmetry adapted basis functions of B3G symmetry.
 There are     3 symmetry adapted basis functions of AU  symmetry.
 There are    17 symmetry adapted basis functions of B1U symmetry.
 There are    17 symmetry adapted basis functions of B2U symmetry.
 There are    17 symmetry adapted basis functions of B3U symmetry.
 Integral buffers will be    262144 words long.
 Raffenetti 2 integral format.
 Two-electron integral symmetry is turned on.
   109 basis functions,   220 primitive gaussians,   109 cartesian basis functions
    35 alpha electrons       35 beta electrons
       nuclear repulsion energy       553.3436017810 Hartrees.
 NAtoms=    7 NActive=    7 NUniq=    2 SFac= 5.66D+00 NAtFMM=   60 Big=F
 One-electron integrals computed using PRISM.
 NBasis=   109 RedAO= T  NBF=    31     8     8     8     3    17    17    17
 NBsUse=   109 1.00D-06 NBFU=    31     8     8     8     3    17    17    17
 Initial guess read from the checkpoint file:
 ../CHK/sf6.chk
 Initial guess orbital symmetries:
       Occupied  (A1G) (A1G) (EG) (EG) (T1U) (T1U) (T1U) (A1G)
                 (T1U) (T1U) (T1U) (A1G) (T1U) (T1U) (T1U) (EG)
                 (EG) (A1G) (T1U) (T1U) (T1U) (T2G) (T2G) (T2G)
                 (EG) (EG) (T1U) (T1U) (T1U) (T2U) (T2U) (T2U)
                 (T1G) (T1G) (T1G)
       Virtual   (A1G) (T1U) (T1U) (T1U) (A1G) (T1U) (T1U) (T1U)
                 (T2G) (T2G) (T2G) (EG) (EG) (EG) (EG) (T2G) (T2G)
                 (T2G) (T1U) (T1U) (T1U) (A1G) (T2U) (T2U) (T2U)
                 (T1G) (T1G) (T1G) (EG) (EG) (T1U) (T1U) (T1U)
                 (T2U) (T2U) (T2U) (A2U) (T2G) (T2G) (T2G) (EU)
                 (EU) (EG) (EG) (A2G) (T2U) (T2U) (T2U) (T1U) (T1U)
                 (T1U) (T1G) (T1G) (T1G) (T2G) (T2G) (T2G) (T1U)
                 (T1U) (T1U) (A1G) (A1G) (T1U) (T1U) (T1U) (EG)
                 (EG) (EG) (EG) (A1G) (T1U) (T1U) (T1U) (A1G)
 Requested convergence on RMS density matrix=1.00D-08 within 128 cycles.
 Requested convergence on MAX density matrix=1.00D-06.
 Requested convergence on             energy=1.00D-06.
 No special actions if energy rises.
 A guess orbital has undefined symmetry, so N**3 symmetry is turned off.
 SCF Done:  E(RB+HF-LYP) =  -997.106743558     A.U. after    1 cycles
             Convg  =    0.3169D-09             -V/T =  2.0059
             S**2   =   0.0000
 Range of M.O.s used for correlation:     1   109
 NBasis=   109 NAE=    35 NBE=    35 NFC=     0 NFV=     0
 NROrb=    109 NOA=    35 NOB=    35 NVA=    74 NVB=    74
 Symmetrizing basis deriv contribution to polar:
 IMax=3 JMax=2 DiffMx= 0.00D+00
 G2DrvN: will do    8 centers at a time, making    1 passes doing MaxLOS=2.
 FoFDir/FoFCou used for L=0 through L=2.
          Differentiating once with respect to electric field.
                with respect to dipole field.
          Differentiating once with respect to nuclear coordinates.
 Integrals replicated using symmetry in FoFDir.
 MinBra= 0 MaxBra= 2 Meth= 1.
 IRaf=       0 NMat=   9 IRICut=       9 DoRegI=T DoRafI=T ISym2E= 2 JSym2E=2.
          There are   9 degrees of freedom in the 1st order CPHF.
     9 vectors were produced by pass  0.
 AX will form   9 AO Fock derivatives at one time.
     9 vectors were produced by pass  1.
     9 vectors were produced by pass  2.
     9 vectors were produced by pass  3.
     9 vectors were produced by pass  4.
     9 vectors were produced by pass  5.
     9 vectors were produced by pass  6.
     3 vectors were produced by pass  7.
     1 vectors were produced by pass  8.
     1 vectors were produced by pass  9.
 Inv2:  IOpt= 1 Iter= 1 AM= 6.22D-16 Conv= 1.00D-12.
 Inverted reduced A of dimension   68 with in-core refinement.
 Isotropic polarizability for W=    0.000000       24.11 Bohr**3.
 End of Minotr Frequency-dependent properties file   721 does not exist.

 **********************************************************************

            Population analysis using the SCF density.

 **********************************************************************

 Orbital symmetries:
       Occupied  (A1G) (A1G) (EG) (EG) (T1U) (T1U) (T1U) (A1G)
                 (T1U) (T1U) (T1U) (A1G) (T1U) (T1U) (T1U) (EG)
                 (EG) (A1G) (T1U) (T1U) (T1U) (T2G) (T2G) (T2G)
                 (EG) (EG) (T1U) (T1U) (T1U) (T2U) (T2U) (T2U)
                 (T1G) (T1G) (T1G)
       Virtual   (A1G) (T1U) (T1U) (T1U) (A1G) (T1U) (T1U) (T1U)
                 (T2G) (T2G) (T2G) (EG) (EG) (EG) (EG) (T2G) (T2G)
                 (T2G) (T1U) (T1U) (T1U) (A1G) (T2U) (T2U) (T2U)
                 (T1G) (T1G) (T1G) (EG) (EG) (T1U) (T1U) (T1U)
                 (T2U) (T2U) (T2U) (A2U) (T2G) (T2G) (T2G) (EU)
                 (EU) (EG) (EG) (A2G) (T2U) (T2U) (T2U) (T1U) (T1U)
                 (T1U) (T1G) (T1G) (T1G) (T2G) (T2G) (T2G) (T1U)
                 (T1U) (T1U) (A1G) (A1G) (T1U) (T1U) (T1U) (EG)
                 (EG) (EG) (EG) (A1G) (T1U) (T1U) (T1U) (A1G)
 The electronic state is 1-A1G.
 Alpha  occ. eigenvalues --  -89.34514 -24.76762 -24.76762 -24.76762 -24.76762
 Alpha  occ. eigenvalues --  -24.76762 -24.76762  -8.33808  -6.30502  -6.30502
 Alpha  occ. eigenvalues --   -6.30502  -1.39029  -1.27480  -1.27480  -1.27480
 Alpha  occ. eigenvalues --   -1.22860  -1.22860  -0.82135  -0.66204  -0.66204
 Alpha  occ. eigenvalues --   -0.66204  -0.54807  -0.54807  -0.54807  -0.52122
 Alpha  occ. eigenvalues --   -0.52122  -0.46874  -0.46874  -0.46874  -0.46455
 Alpha  occ. eigenvalues --   -0.46455  -0.46455  -0.42739  -0.42739  -0.42739
 Alpha virt. eigenvalues --   -0.08826   0.09460   0.09460   0.09460   0.27825
 Alpha virt. eigenvalues --    0.32619   0.32619   0.32619   0.48246   0.48246
 Alpha virt. eigenvalues --    0.48246   0.87401   0.87401   1.05628   1.05628
 Alpha virt. eigenvalues --    1.05644   1.05644   1.05644   1.10758   1.10758
 Alpha virt. eigenvalues --    1.10758   1.12160   1.15046   1.15046   1.15046
 Alpha virt. eigenvalues --    1.36752   1.36752   1.36752   1.38131   1.38131
 Alpha virt. eigenvalues --    1.47451   1.47451   1.47451   1.64261   1.64261
 Alpha virt. eigenvalues --    1.64261   1.67835   1.78343   1.78343   1.78343
 Alpha virt. eigenvalues --    1.81327   1.81327   1.89988   1.89988   1.91666
 Alpha virt. eigenvalues --    1.95912   1.95912   1.95912   1.96559   1.96559
 Alpha virt. eigenvalues --    1.96559   2.01384   2.01384   2.01384   2.04330
 Alpha virt. eigenvalues --    2.04330   2.04330   2.05055   2.05055   2.05055
 Alpha virt. eigenvalues --    2.30186   2.46890   2.49549   2.49549   2.49549
 Alpha virt. eigenvalues --    3.01010   3.01010   3.93746   3.93746   4.26809
 Alpha virt. eigenvalues --    4.86575   4.86575   4.86575   6.02349
     Molecular Orbital Coefficients
                           1         2         3         4         5
                       (A1G)--O  (A1G)--O   (EG)--O   (EG)--O  (T1U)--O
     EIGENVALUES --   -89.34514 -24.76762 -24.76762 -24.76762 -24.76762
   1 1   F  1S         -0.00007   0.40530  -0.39053  -0.41974   0.06303
   2        2S         -0.00040   0.00765  -0.00777  -0.00835   0.00118
   3        2PX         0.00000   0.00000   0.00000   0.00000   0.00000
   4        2PY         0.00000   0.00000   0.00000   0.00000   0.00000
   5        2PZ         0.00004  -0.00028   0.00027   0.00029  -0.00004
   6        3S          0.00180   0.00784  -0.00573  -0.00616   0.00117
   7        3PX         0.00000   0.00000   0.00000   0.00000   0.00002
   8        3PY         0.00000   0.00000   0.00000   0.00000  -0.00001
   9        3PZ        -0.00043  -0.00002  -0.00018  -0.00019  -0.00001
  10        4XX        -0.00025  -0.00360   0.00317   0.00325  -0.00056
  11        4YY        -0.00025  -0.00360   0.00302   0.00339  -0.00056
  12        4ZZ        -0.00047  -0.00382   0.00331   0.00355  -0.00057
  13        4XY         0.00000   0.00000   0.00000   0.00000   0.00000
  14        4XZ         0.00000   0.00000   0.00000   0.00000   0.00012
  15        4YZ         0.00000   0.00000   0.00000   0.00000  -0.00004
  16 2   S  1S          0.99614   0.00001   0.00000   0.00000   0.00000
  17        2S          0.01497   0.00009   0.00000   0.00000   0.00000
  18        2PX         0.00000   0.00000   0.00000   0.00000  -0.00016
  19        2PY         0.00000   0.00000   0.00000   0.00000   0.00005
  20        2PZ         0.00000   0.00000   0.00000   0.00000  -0.00001
  21        3S         -0.02346  -0.00064   0.00000   0.00000   0.00000
  22        3PX         0.00000   0.00000   0.00000   0.00000   0.00047
  23        3PY         0.00000   0.00000   0.00000   0.00000  -0.00014
  24        3PZ         0.00000   0.00000   0.00000   0.00000   0.00004
  25        4S         -0.00073  -0.00415   0.00000   0.00000   0.00000
  26        4PX         0.00000   0.00000   0.00000   0.00000  -0.00180
  27        4PY         0.00000   0.00000   0.00000   0.00000   0.00055
  28        4PZ         0.00000   0.00000   0.00000   0.00000  -0.00017
  29        5XX         0.00858   0.00100  -0.00029   0.00093   0.00000
  30        5YY         0.00858   0.00100   0.00095  -0.00022   0.00000
  31        5ZZ         0.00858   0.00100  -0.00066  -0.00071   0.00000
  32        5XY         0.00000   0.00000   0.00000   0.00000   0.00000
  33        5XZ         0.00000   0.00000   0.00000   0.00000   0.00000
  34        5YZ         0.00000   0.00000   0.00000   0.00000   0.00000
  35 3   F  1S         -0.00007   0.40530   0.55877  -0.12834  -0.20272
  36        2S         -0.00040   0.00765   0.01111  -0.00255  -0.00381
  37        2PX         0.00000   0.00000   0.00000   0.00000   0.00000
  38        2PY         0.00004  -0.00028  -0.00039   0.00009   0.00013
  39        2PZ         0.00000   0.00000   0.00000   0.00000   0.00000
  40        3S          0.00180   0.00784   0.00820  -0.00188  -0.00377
  41        3PX         0.00000   0.00000   0.00000   0.00000   0.00002
  42        3PY        -0.00043  -0.00002   0.00025  -0.00006   0.00002
  43        3PZ         0.00000   0.00000   0.00000   0.00000   0.00000
  44        4XX        -0.00025  -0.00360  -0.00444   0.00092   0.00179
  45        4YY        -0.00047  -0.00382  -0.00473   0.00109   0.00183
  46        4ZZ        -0.00025  -0.00360  -0.00440   0.00112   0.00179
  47        4XY         0.00000   0.00000   0.00000   0.00000   0.00012
  48        4XZ         0.00000   0.00000   0.00000   0.00000   0.00000
  49        4YZ         0.00000   0.00000   0.00000   0.00000   0.00001
  50 4   F  1S         -0.00007   0.40530  -0.39053  -0.41974  -0.06303
  51        2S         -0.00040   0.00765  -0.00777  -0.00835  -0.00118
  52        2PX         0.00000   0.00000   0.00000   0.00000   0.00000
  53        2PY         0.00000   0.00000   0.00000   0.00000   0.00000
  54        2PZ        -0.00004   0.00028  -0.00027  -0.00029  -0.00004
  55        3S          0.00180   0.00784  -0.00573  -0.00616  -0.00117
  56        3PX         0.00000   0.00000   0.00000   0.00000   0.00002
  57        3PY         0.00000   0.00000   0.00000   0.00000  -0.00001
  58        3PZ         0.00043   0.00002   0.00018   0.00019  -0.00001
  59        4XX        -0.00025  -0.00360   0.00317   0.00325   0.00056
  60        4YY        -0.00025  -0.00360   0.00302   0.00339   0.00056
  61        4ZZ        -0.00047  -0.00382   0.00331   0.00355   0.00057
  62        4XY         0.00000   0.00000   0.00000   0.00000   0.00000
  63        4XZ         0.00000   0.00000   0.00000   0.00000  -0.00012
  64        4YZ         0.00000   0.00000   0.00000   0.00000   0.00004
  65 5   F  1S         -0.00007   0.40530  -0.16824   0.54808   0.66916
  66        2S         -0.00040   0.00765  -0.00335   0.01090   0.01257
  67        2PX         0.00004  -0.00028   0.00012  -0.00038  -0.00043
  68        2PY         0.00000   0.00000   0.00000   0.00000   0.00000
  69        2PZ         0.00000   0.00000   0.00000   0.00000   0.00000
  70        3S          0.00180   0.00784  -0.00247   0.00805   0.01246
  71        3PX        -0.00043  -0.00002  -0.00008   0.00025  -0.00008
  72        3PY         0.00000   0.00000   0.00000   0.00000  -0.00001
  73        3PZ         0.00000   0.00000   0.00000   0.00000   0.00000
  74        4XX        -0.00047  -0.00382   0.00142  -0.00464  -0.00603
  75        4YY        -0.00025  -0.00360   0.00123  -0.00437  -0.00591
  76        4ZZ        -0.00025  -0.00360   0.00143  -0.00431  -0.00591
  77        4XY         0.00000   0.00000   0.00000   0.00000  -0.00004
  78        4XZ         0.00000   0.00000   0.00000   0.00000   0.00001
  79        4YZ         0.00000   0.00000   0.00000   0.00000   0.00000
  80 6   F  1S         -0.00007   0.40530  -0.16824   0.54808  -0.66916
  81        2S         -0.00040   0.00765  -0.00335   0.01090  -0.01257
  82        2PX        -0.00004   0.00028  -0.00012   0.00038  -0.00043
  83        2PY         0.00000   0.00000   0.00000   0.00000   0.00000
  84        2PZ         0.00000   0.00000   0.00000   0.00000   0.00000
  85        3S          0.00180   0.00784  -0.00247   0.00805  -0.01246
  86        3PX         0.00043   0.00002   0.00008  -0.00025  -0.00008
  87        3PY         0.00000   0.00000   0.00000   0.00000  -0.00001
  88        3PZ         0.00000   0.00000   0.00000   0.00000   0.00000
  89        4XX        -0.00047  -0.00382   0.00142  -0.00464   0.00603
  90        4YY        -0.00025  -0.00360   0.00123  -0.00437   0.00591
  91        4ZZ        -0.00025  -0.00360   0.00143  -0.00431   0.00591
  92        4XY         0.00000   0.00000   0.00000   0.00000   0.00004
  93        4XZ         0.00000   0.00000   0.00000   0.00000  -0.00001
  94        4YZ         0.00000   0.00000   0.00000   0.00000   0.00000
  95 7   F  1S         -0.00007   0.40530   0.55877  -0.12834   0.20272
  96        2S         -0.00040   0.00765   0.01111  -0.00255   0.00381
  97        2PX         0.00000   0.00000   0.00000   0.00000   0.00000
  98        2PY        -0.00004   0.00028   0.00039  -0.00009   0.00013
  99        2PZ         0.00000   0.00000   0.00000   0.00000   0.00000
 100        3S          0.00180   0.00784   0.00820  -0.00188   0.00377
 101        3PX         0.00000   0.00000   0.00000   0.00000   0.00002
 102        3PY         0.00043   0.00002  -0.00025   0.00006   0.00002
 103        3PZ         0.00000   0.00000   0.00000   0.00000   0.00000
 104        4XX        -0.00025  -0.00360  -0.00444   0.00092  -0.00179
 105        4YY        -0.00047  -0.00382  -0.00473   0.00109  -0.00183
 106        4ZZ        -0.00025  -0.00360  -0.00440   0.00112  -0.00179
 107        4XY         0.00000   0.00000   0.00000   0.00000  -0.00012
 108        4XZ         0.00000   0.00000   0.00000   0.00000   0.00000
 109        4YZ         0.00000   0.00000   0.00000   0.00000  -0.00001
                           6         7         8         9        10
                       (T1U)--O  (T1U)--O  (A1G)--O  (T1U)--O  (T1U)--O
     EIGENVALUES --   -24.76762 -24.76762  -8.33808  -6.30502  -6.30502
   1 1   F  1S          0.61100  -0.33992   0.00026   0.00001   0.00004
   2        2S          0.01148  -0.00639   0.00190   0.00011   0.00034
   3        2PX         0.00000   0.00000   0.00000   0.00016  -0.00004
   4        2PY         0.00000   0.00000   0.00000   0.00004   0.00016
   5        2PZ        -0.00039   0.00022  -0.00024  -0.00002  -0.00005
   6        3S          0.01138  -0.00633  -0.00707  -0.00040  -0.00126
   7        3PX         0.00000   0.00001   0.00000  -0.00124   0.00030
   8        3PY         0.00001   0.00002   0.00000  -0.00030  -0.00123
   9        3PZ        -0.00007   0.00004   0.00313   0.00017   0.00053
  10        4XX        -0.00539   0.00300   0.00126   0.00007   0.00021
  11        4YY        -0.00539   0.00300   0.00126   0.00007   0.00021
  12        4ZZ        -0.00550   0.00306   0.00035   0.00004   0.00012
  13        4XY         0.00000   0.00000   0.00000   0.00000   0.00000
  14        4XZ         0.00001   0.00004   0.00000   0.00087  -0.00021
  15        4YZ         0.00006   0.00011   0.00000   0.00021   0.00086
  16 2   S  1S          0.00000   0.00000  -0.28018   0.00000   0.00000
  17        2S          0.00000   0.00000   1.02334   0.00000   0.00000
  18        2PX        -0.00001  -0.00005   0.00000   0.96374  -0.23247
  19        2PY        -0.00008  -0.00013   0.00000   0.22913   0.95547
  20        2PZ        -0.00014   0.00008   0.00000   0.04042   0.12642
  21        3S          0.00000   0.00000   0.06070   0.00000   0.00000
  22        3PX         0.00003   0.00015   0.00000   0.02907  -0.00701
  23        3PY         0.00024   0.00041   0.00000   0.00691   0.02882
  24        3PZ         0.00043  -0.00024   0.00000   0.00122   0.00381
  25        4S          0.00000   0.00000   0.00210   0.00000   0.00000
  26        4PX        -0.00012  -0.00056   0.00000   0.00038  -0.00009
  27        4PY        -0.00092  -0.00156   0.00000   0.00009   0.00037
  28        4PZ        -0.00164   0.00091   0.00000   0.00002   0.00005
  29        5XX         0.00000   0.00000  -0.01139   0.00000   0.00000
  30        5YY         0.00000   0.00000  -0.01139   0.00000   0.00000
  31        5ZZ         0.00000   0.00000  -0.01139   0.00000   0.00000
  32        5XY         0.00000   0.00000   0.00000   0.00000   0.00000
  33        5XZ         0.00000   0.00000   0.00000   0.00000   0.00000
  34        5YZ         0.00000   0.00000   0.00000   0.00000   0.00000
  35 3   F  1S          0.34260   0.57824   0.00026   0.00006   0.00027
  36        2S          0.00644   0.01086   0.00190   0.00061   0.00255
  37        2PX         0.00000   0.00000   0.00000   0.00016  -0.00004
  38        2PY        -0.00022  -0.00037  -0.00024  -0.00009  -0.00037
  39        2PZ         0.00000   0.00000   0.00000   0.00001   0.00002
  40        3S          0.00638   0.01077  -0.00707  -0.00228  -0.00949
  41        3PX         0.00000   0.00001   0.00000  -0.00124   0.00030
  42        3PY        -0.00004  -0.00007   0.00313   0.00096   0.00401
  43        3PZ         0.00002  -0.00001   0.00000  -0.00005  -0.00016
  44        4XX        -0.00302  -0.00510   0.00126   0.00038   0.00159
  45        4YY        -0.00309  -0.00521   0.00035   0.00022   0.00091
  46        4ZZ        -0.00302  -0.00510   0.00126   0.00038   0.00159
  47        4XY         0.00001   0.00004   0.00000   0.00087  -0.00021
  48        4XZ         0.00000   0.00000   0.00000   0.00000   0.00000
  49        4YZ         0.00011  -0.00006   0.00000   0.00004   0.00011
  50 4   F  1S         -0.61100   0.33992   0.00026  -0.00001  -0.00004
  51        2S         -0.01148   0.00639   0.00190  -0.00011  -0.00034
  52        2PX         0.00000   0.00000   0.00000   0.00016  -0.00004
  53        2PY         0.00000   0.00000   0.00000   0.00004   0.00016
  54        2PZ        -0.00039   0.00022   0.00024  -0.00002  -0.00005
  55        3S         -0.01138   0.00633  -0.00707   0.00040   0.00126
  56        3PX         0.00000   0.00001   0.00000  -0.00124   0.00030
  57        3PY         0.00001   0.00002   0.00000  -0.00030  -0.00123
  58        3PZ        -0.00007   0.00004  -0.00313   0.00017   0.00053
  59        4XX         0.00539  -0.00300   0.00126  -0.00007  -0.00021
  60        4YY         0.00539  -0.00300   0.00126  -0.00007  -0.00021
  61        4ZZ         0.00550  -0.00306   0.00035  -0.00004  -0.00012
  62        4XY         0.00000   0.00000   0.00000   0.00000   0.00000
  63        4XZ        -0.00001  -0.00004   0.00000  -0.00087   0.00021
  64        4YZ        -0.00006  -0.00011   0.00000  -0.00021  -0.00086
  65 5   F  1S          0.04624   0.20720   0.00026   0.00027  -0.00006
  66        2S          0.00087   0.00389   0.00190   0.00258  -0.00062
  67        2PX        -0.00003  -0.00013  -0.00024  -0.00037   0.00009
  68        2PY         0.00000   0.00000   0.00000   0.00004   0.00016
  69        2PZ         0.00000   0.00000   0.00000   0.00001   0.00002
  70        3S          0.00086   0.00386  -0.00707  -0.00957   0.00231
  71        3PX        -0.00001  -0.00002   0.00313   0.00404  -0.00097
  72        3PY         0.00001   0.00002   0.00000  -0.00030  -0.00123
  73        3PZ         0.00002  -0.00001   0.00000  -0.00005  -0.00016
  74        4XX        -0.00042  -0.00187   0.00035   0.00091  -0.00022
  75        4YY        -0.00041  -0.00183   0.00126   0.00160  -0.00039
  76        4ZZ        -0.00041  -0.00183   0.00126   0.00160  -0.00039
  77        4XY         0.00006   0.00011   0.00000   0.00021   0.00086
  78        4XZ         0.00011  -0.00006   0.00000   0.00004   0.00011
  79        4YZ         0.00000   0.00000   0.00000   0.00000   0.00000
  80 6   F  1S         -0.04624  -0.20720   0.00026  -0.00027   0.00006
  81        2S         -0.00087  -0.00389   0.00190  -0.00258   0.00062
  82        2PX        -0.00003  -0.00013   0.00024  -0.00037   0.00009
  83        2PY         0.00000   0.00000   0.00000   0.00004   0.00016
  84        2PZ         0.00000   0.00000   0.00000   0.00001   0.00002
  85        3S         -0.00086  -0.00386  -0.00707   0.00957  -0.00231
  86        3PX        -0.00001  -0.00002  -0.00313   0.00404  -0.00097
  87        3PY         0.00001   0.00002   0.00000  -0.00030  -0.00123
  88        3PZ         0.00002  -0.00001   0.00000  -0.00005  -0.00016
  89        4XX         0.00042   0.00187   0.00035  -0.00091   0.00022
  90        4YY         0.00041   0.00183   0.00126  -0.00160   0.00039
  91        4ZZ         0.00041   0.00183   0.00126  -0.00160   0.00039
  92        4XY        -0.00006  -0.00011   0.00000  -0.00021  -0.00086
  93        4XZ        -0.00011   0.00006   0.00000  -0.00004  -0.00011
  94        4YZ         0.00000   0.00000   0.00000   0.00000   0.00000
  95 7   F  1S         -0.34260  -0.57824   0.00026  -0.00006  -0.00027
  96        2S         -0.00644  -0.01086   0.00190  -0.00061  -0.00255
  97        2PX         0.00000   0.00000   0.00000   0.00016  -0.00004
  98        2PY        -0.00022  -0.00037   0.00024  -0.00009  -0.00037
  99        2PZ         0.00000   0.00000   0.00000   0.00001   0.00002
 100        3S         -0.00638  -0.01077  -0.00707   0.00228   0.00949
 101        3PX         0.00000   0.00001   0.00000  -0.00124   0.00030
 102        3PY        -0.00004  -0.00007  -0.00313   0.00096   0.00401
 103        3PZ         0.00002  -0.00001   0.00000  -0.00005  -0.00016
 104        4XX         0.00302   0.00510   0.00126  -0.00038  -0.00159
 105        4YY         0.00309   0.00521   0.00035  -0.00022  -0.00091
 106        4ZZ         0.00302   0.00510   0.00126  -0.00038  -0.00159
 107        4XY        -0.00001  -0.00004   0.00000  -0.00087   0.00021
 108        4XZ         0.00000   0.00000   0.00000   0.00000   0.00000
 109        4YZ        -0.00011   0.00006   0.00000  -0.00004  -0.00011
                          11        12        13        14        15
                       (T1U)--O  (A1G)--O  (T1U)--O  (T1U)--O  (T1U)--O
     EIGENVALUES --    -6.30502  -1.39029  -1.27480  -1.27480  -1.27480
   1 1   F  1S          0.00027  -0.07633   0.05607  -0.14501  -0.02160
   2        2S          0.00263   0.16987  -0.12613   0.32622   0.04860
   3        2PX         0.00000   0.00000   0.00943   0.00479  -0.00766
   4        2PY        -0.00002   0.00000   0.00773   0.00144   0.01042
   5        2PZ        -0.00038  -0.05220   0.02405  -0.06220  -0.00927
   6        3S         -0.00976   0.15054  -0.11577   0.29943   0.04461
   7        3PX         0.00001   0.00000   0.00378   0.00192  -0.00307
   8        3PY         0.00017   0.00000   0.00310   0.00058   0.00417
   9        3PZ         0.00412  -0.02666   0.01402  -0.03627  -0.00540
  10        4XX         0.00163   0.00297  -0.00187   0.00482   0.00072
  11        4YY         0.00163   0.00297  -0.00187   0.00482   0.00072
  12        4ZZ         0.00093   0.01496  -0.00970   0.02508   0.00374
  13        4XY         0.00000   0.00000   0.00000   0.00000   0.00000
  14        4XZ        -0.00001   0.00000   0.00005   0.00002  -0.00004
  15        4YZ        -0.00012   0.00000   0.00004   0.00001   0.00005
  16 2   S  1S          0.00000   0.04129   0.00000   0.00000   0.00000
  17        2S          0.00000  -0.18284   0.00000   0.00000   0.00000
  18        2PX        -0.00973   0.00000  -0.06239  -0.03167   0.05066
  19        2PY        -0.13237   0.00000  -0.05116  -0.00951  -0.06895
  20        2PZ         0.98251   0.00000   0.03085  -0.07980  -0.01189
  21        3S          0.00000   0.37398   0.00000   0.00000   0.00000
  22        3PX        -0.00029   0.00000   0.12919   0.06558  -0.10490
  23        3PY        -0.00399   0.00000   0.10594   0.01969   0.14277
  24        3PZ         0.02963   0.00000  -0.06389   0.16525   0.02462
  25        4S          0.00000  -0.01125   0.00000   0.00000   0.00000
  26        4PX         0.00000   0.00000  -0.00552  -0.00280   0.00448
  27        4PY        -0.00005   0.00000  -0.00453  -0.00084  -0.00610
  28        4PZ         0.00039   0.00000   0.00273  -0.00706  -0.00105
  29        5XX         0.00000  -0.00293   0.00000   0.00000   0.00000
  30        5YY         0.00000  -0.00293   0.00000   0.00000   0.00000
  31        5ZZ         0.00000  -0.00293   0.00000   0.00000   0.00000
  32        5XY         0.00000   0.00000   0.00000   0.00000   0.00000
  33        5XZ         0.00000   0.00000   0.00000   0.00000   0.00000
  34        5YZ         0.00000   0.00000   0.00000   0.00000   0.00000
  35 3   F  1S         -0.00004  -0.07633  -0.09297  -0.01728  -0.12529
  36        2S         -0.00035   0.16987   0.20914   0.03887   0.28186
  37        2PX         0.00000   0.00000   0.00943   0.00479  -0.00766
  38        2PY         0.00005  -0.05220  -0.03988  -0.00741  -0.05374
  39        2PZ         0.00016   0.00000  -0.00466   0.01206   0.00180
  40        3S          0.00131   0.15054   0.19196   0.03568   0.25871
  41        3PX         0.00001   0.00000   0.00378   0.00192  -0.00307
  42        3PY        -0.00056  -0.02666  -0.02325  -0.00432  -0.03134
  43        3PZ        -0.00127   0.00000  -0.00187   0.00483   0.00072
  44        4XX        -0.00022   0.00297   0.00309   0.00057   0.00417
  45        4YY        -0.00013   0.01496   0.01608   0.00299   0.02167
  46        4ZZ        -0.00022   0.00297   0.00309   0.00057   0.00417
  47        4XY        -0.00001   0.00000   0.00005   0.00002  -0.00004
  48        4XZ         0.00000   0.00000   0.00000   0.00000   0.00000
  49        4YZ         0.00088   0.00000  -0.00002   0.00006   0.00001
  50 4   F  1S         -0.00027  -0.07633  -0.05607   0.14501   0.02160
  51        2S         -0.00263   0.16987   0.12613  -0.32622  -0.04860
  52        2PX         0.00000   0.00000   0.00943   0.00479  -0.00766
  53        2PY        -0.00002   0.00000   0.00773   0.00144   0.01042
  54        2PZ        -0.00038   0.05220   0.02405  -0.06220  -0.00927
  55        3S          0.00976   0.15054   0.11577  -0.29943  -0.04461
  56        3PX         0.00001   0.00000   0.00378   0.00192  -0.00307
  57        3PY         0.00017   0.00000   0.00310   0.00058   0.00417
  58        3PZ         0.00412   0.02666   0.01402  -0.03627  -0.00540
  59        4XX        -0.00163   0.00297   0.00187  -0.00482  -0.00072
  60        4YY        -0.00163   0.00297   0.00187  -0.00482  -0.00072
  61        4ZZ        -0.00093   0.01496   0.00970  -0.02508  -0.00374
  62        4XY         0.00000   0.00000   0.00000   0.00000   0.00000
  63        4XZ         0.00001   0.00000  -0.00005  -0.00002   0.00004
  64        4YZ         0.00012   0.00000  -0.00004  -0.00001  -0.00005
  65 5   F  1S          0.00000  -0.07633  -0.11337  -0.05755   0.09206
  66        2S         -0.00003   0.16987   0.25504   0.12946  -0.20709
  67        2PX         0.00000  -0.05220  -0.04863  -0.02469   0.03949
  68        2PY        -0.00002   0.00000   0.00773   0.00144   0.01042
  69        2PZ         0.00016   0.00000  -0.00466   0.01206   0.00180
  70        3S          0.00010   0.15054   0.23409   0.11883  -0.19008
  71        3PX        -0.00004  -0.02666  -0.02835  -0.01439   0.02302
  72        3PY         0.00017   0.00000   0.00310   0.00058   0.00417
  73        3PZ        -0.00127   0.00000  -0.00187   0.00483   0.00072
  74        4XX        -0.00001   0.01496   0.01961   0.00995  -0.01592
  75        4YY        -0.00002   0.00297   0.00377   0.00191  -0.00306
  76        4ZZ        -0.00002   0.00297   0.00377   0.00191  -0.00306
  77        4XY        -0.00012   0.00000   0.00004   0.00001   0.00005
  78        4XZ         0.00088   0.00000  -0.00002   0.00006   0.00001
  79        4YZ         0.00000   0.00000   0.00000   0.00000   0.00000
  80 6   F  1S          0.00000  -0.07633   0.11337   0.05755  -0.09206
  81        2S          0.00003   0.16987  -0.25504  -0.12946   0.20709
  82        2PX         0.00000   0.05220  -0.04863  -0.02469   0.03949
  83        2PY        -0.00002   0.00000   0.00773   0.00144   0.01042
  84        2PZ         0.00016   0.00000  -0.00466   0.01206   0.00180
  85        3S         -0.00010   0.15054  -0.23409  -0.11883   0.19008
  86        3PX        -0.00004   0.02666  -0.02835  -0.01439   0.02302
  87        3PY         0.00017   0.00000   0.00310   0.00058   0.00417
  88        3PZ        -0.00127   0.00000  -0.00187   0.00483   0.00072
  89        4XX         0.00001   0.01496  -0.01961  -0.00995   0.01592
  90        4YY         0.00002   0.00297  -0.00377  -0.00191   0.00306
  91        4ZZ         0.00002   0.00297  -0.00377  -0.00191   0.00306
  92        4XY         0.00012   0.00000  -0.00004  -0.00001  -0.00005
  93        4XZ        -0.00088   0.00000   0.00002  -0.00006  -0.00001
  94        4YZ         0.00000   0.00000   0.00000   0.00000   0.00000
  95 7   F  1S          0.00004  -0.07633   0.09297   0.01728   0.12529
  96        2S          0.00035   0.16987  -0.20914  -0.03887  -0.28186
  97        2PX         0.00000   0.00000   0.00943   0.00479  -0.00766
  98        2PY         0.00005   0.05220  -0.03988  -0.00741  -0.05374
  99        2PZ         0.00016   0.00000  -0.00466   0.01206   0.00180
 100        3S         -0.00131   0.15054  -0.19196  -0.03568  -0.25871
 101        3PX         0.00001   0.00000   0.00378   0.00192  -0.00307
 102        3PY        -0.00056   0.02666  -0.02325  -0.00432  -0.03134
 103        3PZ        -0.00127   0.00000  -0.00187   0.00483   0.00072
 104        4XX         0.00022   0.00297  -0.00309  -0.00057  -0.00417
 105        4YY         0.00013   0.01496  -0.01608  -0.00299  -0.02167
 106        4ZZ         0.00022   0.00297  -0.00309  -0.00057  -0.00417
 107        4XY         0.00001   0.00000  -0.00005  -0.00002   0.00004
 108        4XZ         0.00000   0.00000   0.00000   0.00000   0.00000
 109        4YZ        -0.00088   0.00000   0.00002  -0.00006  -0.00001
                          16        17        18        19        20
                        (EG)--O   (EG)--O  (A1G)--O  (T1U)--O  (T1U)--O
     EIGENVALUES --    -1.22860  -1.22860  -0.82135  -0.66204  -0.66204
   1 1   F  1S          0.07902   0.11149   0.05860  -0.00324  -0.02867
   2        2S         -0.17828  -0.25154  -0.13717   0.00719   0.06373
   3        2PX         0.00000   0.00000   0.00000   0.10889  -0.01241
   4        2PY         0.00000   0.00000   0.00000   0.01094   0.09571
   5        2PZ         0.02536   0.03578  -0.13643   0.01704   0.15093
   6        3S         -0.17122  -0.24157  -0.15413   0.01087   0.09626
   7        3PX         0.00000   0.00000   0.00000   0.06835  -0.00779
   8        3PY         0.00000   0.00000   0.00000   0.00687   0.06008
   9        3PZ         0.01670   0.02357  -0.07619   0.00958   0.08488
  10        4XX        -0.00332  -0.00286  -0.00516   0.00013   0.00117
  11        4YY        -0.00160  -0.00408  -0.00516   0.00013   0.00117
  12        4ZZ        -0.00904  -0.01276   0.00729  -0.00093  -0.00824
  13        4XY         0.00000   0.00000   0.00000   0.00000   0.00000
  14        4XZ         0.00000   0.00000   0.00000  -0.00750   0.00086
  15        4YZ         0.00000   0.00000   0.00000  -0.00075  -0.00660
  16 2   S  1S          0.00000   0.00000   0.06129   0.00000   0.00000
  17        2S          0.00000   0.00000  -0.25855   0.00000   0.00000
  18        2PX         0.00000   0.00000   0.00000  -0.17505   0.01995
  19        2PY         0.00000   0.00000   0.00000  -0.01758  -0.15386
  20        2PZ         0.00000   0.00000   0.00000   0.00942   0.08348
  21        3S          0.00000   0.00000   0.70192   0.00000   0.00000
  22        3PX         0.00000   0.00000   0.00000   0.46464  -0.05295
  23        3PY         0.00000   0.00000   0.00000   0.04667   0.40841
  24        3PZ         0.00000   0.00000   0.00000  -0.02501  -0.22157
  25        4S          0.00000   0.00000  -0.03077   0.00000   0.00000
  26        4PX         0.00000   0.00000   0.00000   0.00646  -0.00074
  27        4PY         0.00000   0.00000   0.00000   0.00065   0.00568
  28        4PZ         0.00000   0.00000   0.00000  -0.00035  -0.00308
  29        5XX        -0.03073   0.06689  -0.01319   0.00000   0.00000
  30        5YY         0.07329  -0.00683  -0.01319   0.00000   0.00000
  31        5ZZ        -0.04257  -0.06006  -0.01319   0.00000   0.00000
  32        5XY         0.00000   0.00000   0.00000   0.00000   0.00000
  33        5XZ         0.00000   0.00000   0.00000   0.00000   0.00000
  34        5YZ         0.00000   0.00000   0.00000   0.00000   0.00000
  35 3   F  1S         -0.13607   0.01269   0.05860   0.00604   0.05285
  36        2S          0.30698  -0.02863  -0.13717  -0.01342  -0.11746
  37        2PX         0.00000   0.00000   0.00000   0.10889  -0.01241
  38        2PY        -0.04366   0.00407  -0.13643  -0.03179  -0.27819
  39        2PZ         0.00000   0.00000   0.00000  -0.00586  -0.05192
  40        3S          0.29482  -0.02749  -0.15413  -0.02027  -0.17742
  41        3PX         0.00000   0.00000   0.00000   0.06835  -0.00779
  42        3PY        -0.02876   0.00268  -0.07619  -0.01788  -0.15646
  43        3PZ         0.00000   0.00000   0.00000  -0.00368  -0.03259
  44        4XX         0.00433   0.00066  -0.00516  -0.00025  -0.00215
  45        4YY         0.01557  -0.00145   0.00729   0.00174   0.01519
  46        4ZZ         0.00413  -0.00145  -0.00516  -0.00025  -0.00215
  47        4XY         0.00000   0.00000   0.00000  -0.00750   0.00086
  48        4XZ         0.00000   0.00000   0.00000   0.00000   0.00000
  49        4YZ         0.00000   0.00000   0.00000   0.00040   0.00358
  50 4   F  1S          0.07902   0.11149   0.05860   0.00324   0.02867
  51        2S         -0.17828  -0.25154  -0.13717  -0.00719  -0.06373
  52        2PX         0.00000   0.00000   0.00000   0.10889  -0.01241
  53        2PY         0.00000   0.00000   0.00000   0.01094   0.09571
  54        2PZ        -0.02536  -0.03578   0.13643   0.01704   0.15093
  55        3S         -0.17122  -0.24157  -0.15413  -0.01087  -0.09626
  56        3PX         0.00000   0.00000   0.00000   0.06835  -0.00779
  57        3PY         0.00000   0.00000   0.00000   0.00687   0.06008
  58        3PZ        -0.01670  -0.02357   0.07619   0.00958   0.08488
  59        4XX        -0.00332  -0.00286  -0.00516  -0.00013  -0.00117
  60        4YY        -0.00160  -0.00408  -0.00516  -0.00013  -0.00117
  61        4ZZ        -0.00904  -0.01276   0.00729   0.00093   0.00824
  62        4XY         0.00000   0.00000   0.00000   0.00000   0.00000
  63        4XZ         0.00000   0.00000   0.00000   0.00750  -0.00086
  64        4YZ         0.00000   0.00000   0.00000   0.00075   0.00660
  65 5   F  1S          0.05705  -0.12418   0.05860   0.06013  -0.00685
  66        2S         -0.12870   0.28017  -0.13717  -0.13363   0.01523
  67        2PX         0.01831  -0.03985  -0.13643  -0.31650   0.03607
  68        2PY         0.00000   0.00000   0.00000   0.01094   0.09571
  69        2PZ         0.00000   0.00000   0.00000  -0.00586  -0.05192
  70        3S         -0.12360   0.26906  -0.15413  -0.20185   0.02300
  71        3PX         0.01206  -0.02625  -0.07619  -0.17800   0.02029
  72        3PY         0.00000   0.00000   0.00000   0.00687   0.06008
  73        3PZ         0.00000   0.00000   0.00000  -0.00368  -0.03259
  74        4XX        -0.00653   0.01421   0.00729   0.01728  -0.00197
  75        4YY        -0.00081   0.00430  -0.00516  -0.00245   0.00028
  76        4ZZ        -0.00273   0.00342  -0.00516  -0.00245   0.00028
  77        4XY         0.00000   0.00000   0.00000  -0.00075  -0.00660
  78        4XZ         0.00000   0.00000   0.00000   0.00040   0.00358
  79        4YZ         0.00000   0.00000   0.00000   0.00000   0.00000
  80 6   F  1S          0.05705  -0.12418   0.05860  -0.06013   0.00685
  81        2S         -0.12870   0.28017  -0.13717   0.13363  -0.01523
  82        2PX        -0.01831   0.03985   0.13643  -0.31650   0.03607
  83        2PY         0.00000   0.00000   0.00000   0.01094   0.09571
  84        2PZ         0.00000   0.00000   0.00000  -0.00586  -0.05192
  85        3S         -0.12360   0.26906  -0.15413   0.20185  -0.02300
  86        3PX        -0.01206   0.02625   0.07619  -0.17800   0.02029
  87        3PY         0.00000   0.00000   0.00000   0.00687   0.06008
  88        3PZ         0.00000   0.00000   0.00000  -0.00368  -0.03259
  89        4XX        -0.00653   0.01421   0.00729  -0.01728   0.00197
  90        4YY        -0.00081   0.00430  -0.00516   0.00245  -0.00028
  91        4ZZ        -0.00273   0.00342  -0.00516   0.00245  -0.00028
  92        4XY         0.00000   0.00000   0.00000   0.00075   0.00660
  93        4XZ         0.00000   0.00000   0.00000  -0.00040  -0.00358
  94        4YZ         0.00000   0.00000   0.00000   0.00000   0.00000
  95 7   F  1S         -0.13607   0.01269   0.05860  -0.00604  -0.05285
  96        2S          0.30698  -0.02863  -0.13717   0.01342   0.11746
  97        2PX         0.00000   0.00000   0.00000   0.10889  -0.01241
  98        2PY         0.04366  -0.00407   0.13643  -0.03179  -0.27819
  99        2PZ         0.00000   0.00000   0.00000  -0.00586  -0.05192
 100        3S          0.29482  -0.02749  -0.15413   0.02027   0.17742
 101        3PX         0.00000   0.00000   0.00000   0.06835  -0.00779
 102        3PY         0.02876  -0.00268   0.07619  -0.01788  -0.15646
 103        3PZ         0.00000   0.00000   0.00000  -0.00368  -0.03259
 104        4XX         0.00433   0.00066  -0.00516   0.00025   0.00215
 105        4YY         0.01557  -0.00145   0.00729  -0.00174  -0.01519
 106        4ZZ         0.00413  -0.00145  -0.00516   0.00025   0.00215
 107        4XY         0.00000   0.00000   0.00000   0.00750  -0.00086
 108        4XZ         0.00000   0.00000   0.00000   0.00000   0.00000
 109        4YZ         0.00000   0.00000   0.00000  -0.00040  -0.00358
                          21        22        23        24        25
                       (T1U)--O  (T2G)--O  (T2G)--O  (T2G)--O   (EG)--O
     EIGENVALUES --    -0.66204  -0.54807  -0.54807  -0.54807  -0.52122
   1 1   F  1S          0.05319   0.00000   0.00000   0.00000   0.00469
   2        2S         -0.11822   0.00000   0.00000   0.00000  -0.00731
   3        2PX        -0.00006  -0.00540   0.21639   0.21378   0.00000
   4        2PY         0.05225  -0.12203   0.19432  -0.19977   0.00000
   5        2PZ        -0.28000   0.00000   0.00000   0.00000  -0.08623
   6        3S         -0.17857   0.00000   0.00000   0.00000  -0.01824
   7        3PX        -0.00004  -0.00408   0.16316   0.16119   0.00000
   8        3PY         0.03280  -0.09201   0.14651  -0.15063   0.00000
   9        3PZ        -0.15748   0.00000   0.00000   0.00000  -0.05533
  10        4XX        -0.00217   0.00000   0.00000   0.00000   0.00212
  11        4YY        -0.00217   0.00000   0.00000   0.00000  -0.00148
  12        4ZZ         0.01529   0.00000   0.00000   0.00000   0.00408
  13        4XY         0.00000   0.00533   0.00171  -0.00159   0.00000
  14        4XZ         0.00000   0.00038  -0.01509  -0.01491   0.00000
  15        4YZ        -0.00360   0.00851  -0.01355   0.01393   0.00000
  16 2   S  1S          0.00000   0.00000   0.00000   0.00000   0.00000
  17        2S          0.00000   0.00000   0.00000   0.00000   0.00000
  18        2PX         0.00010   0.00000   0.00000   0.00000   0.00000
  19        2PY        -0.08401   0.00000   0.00000   0.00000   0.00000
  20        2PZ        -0.15487   0.00000   0.00000   0.00000   0.00000
  21        3S          0.00000   0.00000   0.00000   0.00000   0.00000
  22        3PX        -0.00027   0.00000   0.00000   0.00000   0.00000
  23        3PY         0.22298   0.00000   0.00000   0.00000   0.00000
  24        3PZ         0.41106   0.00000   0.00000   0.00000   0.00000
  25        4S          0.00000   0.00000   0.00000   0.00000   0.00000
  26        4PX         0.00000   0.00000   0.00000   0.00000   0.00000
  27        4PY         0.00310   0.00000   0.00000   0.00000   0.00000
  28        4PZ         0.00571   0.00000   0.00000   0.00000   0.00000
  29        5XX         0.00000   0.00000   0.00000   0.00000   0.12223
  30        5YY         0.00000   0.00000   0.00000   0.00000  -0.16024
  31        5ZZ         0.00000   0.00000   0.00000   0.00000   0.03801
  32        5XY         0.00000   0.10343   0.03315  -0.03094   0.00000
  33        5XZ         0.00000  -0.00201   0.08032   0.07935   0.00000
  34        5YZ         0.00000  -0.04529   0.07213  -0.07415   0.00000
  35 3   F  1S          0.02885   0.00000   0.00000   0.00000  -0.01978
  36        2S         -0.06413   0.00000   0.00000   0.00000   0.03084
  37        2PX        -0.00006   0.27864   0.08930  -0.08334   0.00000
  38        2PY        -0.15189   0.00000   0.00000   0.00000   0.36354
  39        2PZ         0.09633  -0.12203   0.19432  -0.19977   0.00000
  40        3S         -0.09687   0.00000   0.00000   0.00000   0.07689
  41        3PX        -0.00004   0.21009   0.06733  -0.06284   0.00000
  42        3PY        -0.08542   0.00000   0.00000   0.00000   0.23324
  43        3PZ         0.06047  -0.09201   0.14651  -0.15063   0.00000
  44        4XX        -0.00118   0.00000   0.00000   0.00000  -0.00081
  45        4YY         0.00829   0.00000   0.00000   0.00000  -0.01721
  46        4ZZ        -0.00118   0.00000   0.00000   0.00000  -0.00189
  47        4XY         0.00000  -0.01944  -0.00623   0.00581   0.00000
  48        4XZ         0.00000  -0.00010   0.00414   0.00409   0.00000
  49        4YZ        -0.00664   0.00851  -0.01355   0.01393   0.00000
  50 4   F  1S         -0.05319   0.00000   0.00000   0.00000   0.00469
  51        2S          0.11822   0.00000   0.00000   0.00000  -0.00731
  52        2PX        -0.00006   0.00540  -0.21639  -0.21378   0.00000
  53        2PY         0.05225   0.12203  -0.19432   0.19977   0.00000
  54        2PZ        -0.28000   0.00000   0.00000   0.00000   0.08623
  55        3S          0.17857   0.00000   0.00000   0.00000  -0.01824
  56        3PX        -0.00004   0.00408  -0.16316  -0.16119   0.00000
  57        3PY         0.03280   0.09201  -0.14651   0.15063   0.00000
  58        3PZ        -0.15748   0.00000   0.00000   0.00000   0.05533
  59        4XX         0.00217   0.00000   0.00000   0.00000   0.00212
  60        4YY         0.00217   0.00000   0.00000   0.00000  -0.00148
  61        4ZZ        -0.01529   0.00000   0.00000   0.00000   0.00408
  62        4XY         0.00000   0.00533   0.00171  -0.00159   0.00000
  63        4XZ         0.00000   0.00038  -0.01509  -0.01491   0.00000
  64        4YZ         0.00360   0.00851  -0.01355   0.01393   0.00000
  65 5   F  1S         -0.00003   0.00000   0.00000   0.00000   0.01509
  66        2S          0.00008   0.00000   0.00000   0.00000  -0.02352
  67        2PX         0.00018   0.00000   0.00000   0.00000  -0.27731
  68        2PY         0.05225   0.27864   0.08930  -0.08334   0.00000
  69        2PZ         0.09633  -0.00540   0.21639   0.21378   0.00000
  70        3S          0.00012   0.00000   0.00000   0.00000  -0.05865
  71        3PX         0.00010   0.00000   0.00000   0.00000  -0.17792
  72        3PY         0.03280   0.21009   0.06733  -0.06284   0.00000
  73        3PZ         0.06047  -0.00408   0.16316   0.16119   0.00000
  74        4XX        -0.00001   0.00000   0.00000   0.00000   0.01313
  75        4YY         0.00000   0.00000   0.00000   0.00000  -0.00024
  76        4ZZ         0.00000   0.00000   0.00000   0.00000   0.00229
  77        4XY        -0.00360  -0.01944  -0.00623   0.00581   0.00000
  78        4XZ        -0.00664   0.00038  -0.01509  -0.01491   0.00000
  79        4YZ         0.00000  -0.00234   0.00372  -0.00382   0.00000
  80 6   F  1S          0.00003   0.00000   0.00000   0.00000   0.01509
  81        2S         -0.00008   0.00000   0.00000   0.00000  -0.02352
  82        2PX         0.00018   0.00000   0.00000   0.00000   0.27731
  83        2PY         0.05225  -0.27864  -0.08930   0.08334   0.00000
  84        2PZ         0.09633   0.00540  -0.21639  -0.21378   0.00000
  85        3S         -0.00012   0.00000   0.00000   0.00000  -0.05865
  86        3PX         0.00010   0.00000   0.00000   0.00000   0.17792
  87        3PY         0.03280  -0.21009  -0.06733   0.06284   0.00000
  88        3PZ         0.06047   0.00408  -0.16316  -0.16119   0.00000
  89        4XX         0.00001   0.00000   0.00000   0.00000   0.01313
  90        4YY         0.00000   0.00000   0.00000   0.00000  -0.00024
  91        4ZZ         0.00000   0.00000   0.00000   0.00000   0.00229
  92        4XY         0.00360  -0.01944  -0.00623   0.00581   0.00000
  93        4XZ         0.00664   0.00038  -0.01509  -0.01491   0.00000
  94        4YZ         0.00000  -0.00234   0.00372  -0.00382   0.00000
  95 7   F  1S         -0.02885   0.00000   0.00000   0.00000  -0.01978
  96        2S          0.06413   0.00000   0.00000   0.00000   0.03084
  97        2PX        -0.00006  -0.27864  -0.08930   0.08334   0.00000
  98        2PY        -0.15189   0.00000   0.00000   0.00000  -0.36354
  99        2PZ         0.09633   0.12203  -0.19432   0.19977   0.00000
 100        3S          0.09687   0.00000   0.00000   0.00000   0.07689
 101        3PX        -0.00004  -0.21009  -0.06733   0.06284   0.00000
 102        3PY        -0.08542   0.00000   0.00000   0.00000  -0.23324
 103        3PZ         0.06047   0.09201  -0.14651   0.15063   0.00000
 104        4XX         0.00118   0.00000   0.00000   0.00000  -0.00081
 105        4YY        -0.00829   0.00000   0.00000   0.00000  -0.01721
 106        4ZZ         0.00118   0.00000   0.00000   0.00000  -0.00189
 107        4XY         0.00000  -0.01944  -0.00623   0.00581   0.00000
 108        4XZ         0.00000  -0.00010   0.00414   0.00409   0.00000
 109        4YZ         0.00664   0.00851  -0.01355   0.01393   0.00000
                          26        27        28        29        30
                        (EG)--O  (T1U)--O  (T1U)--O  (T1U)--O  (T2U)--O
     EIGENVALUES --    -0.52122  -0.46874  -0.46874  -0.46874  -0.46455
   1 1   F  1S         -0.02013   0.00056  -0.00132   0.00737   0.00000
   2        2S          0.03138   0.00040  -0.00095   0.00529   0.00000
   3        2PX         0.00000  -0.15013   0.25719   0.05749   0.10265
   4        2PY         0.00000   0.26258   0.15163   0.00734   0.09712
   5        2PZ         0.37000   0.01584  -0.03756   0.20942   0.00000
   6        3S          0.07826  -0.00820   0.01945  -0.10841   0.00000
   7        3PX         0.00000  -0.09508   0.16288   0.03641   0.07181
   8        3PY         0.00000   0.16629   0.09603   0.00465   0.06794
   9        3PZ         0.23738   0.01219  -0.02891   0.16116   0.00000
  10        4XX        -0.00095   0.00116  -0.00275   0.01533  -0.00611
  11        4YY        -0.00179   0.00116  -0.00275   0.01533   0.00611
  12        4ZZ        -0.01751  -0.00087   0.00206  -0.01146   0.00000
  13        4XY         0.00000   0.00000   0.00000   0.00000   0.00000
  14        4XZ         0.00000   0.00538  -0.00922  -0.00206  -0.00468
  15        4YZ         0.00000  -0.00942  -0.00544  -0.00026  -0.00443
  16 2   S  1S          0.00000   0.00000   0.00000   0.00000   0.00000
  17        2S          0.00000   0.00000   0.00000   0.00000   0.00000
  18        2PX         0.00000  -0.01482   0.02539   0.00567   0.00000
  19        2PY         0.00000   0.02592   0.01497   0.00072   0.00000
  20        2PZ         0.00000   0.00222  -0.00527   0.02938   0.00000
  21        3S          0.00000   0.00000   0.00000   0.00000   0.00000
  22        3PX         0.00000   0.04088  -0.07003  -0.01565   0.00000
  23        3PY         0.00000  -0.07150  -0.04129  -0.00200   0.00000
  24        3PZ         0.00000  -0.00613   0.01454  -0.08106   0.00000
  25        4S          0.00000   0.00000   0.00000   0.00000   0.00000
  26        4PX         0.00000  -0.10007   0.17143   0.03832   0.00000
  27        4PY         0.00000   0.17502   0.10107   0.00489   0.00000
  28        4PZ         0.00000   0.01501  -0.03559   0.19844   0.00000
  29        5XX         0.11446   0.00000   0.00000   0.00000   0.00000
  30        5YY         0.04863   0.00000   0.00000   0.00000   0.00000
  31        5ZZ        -0.16309   0.00000   0.00000   0.00000   0.00000
  32        5XY         0.00000   0.00000   0.00000   0.00000   0.00000
  33        5XZ         0.00000   0.00000   0.00000   0.00000   0.00000
  34        5YZ         0.00000   0.00000   0.00000   0.00000   0.00000
  35 3   F  1S          0.00600   0.00650   0.00375   0.00018   0.00000
  36        2S         -0.00936   0.00466   0.00269   0.00013   0.00000
  37        2PX         0.00000  -0.15013   0.25719   0.05749  -0.10265
  38        2PY        -0.11032   0.18470   0.10666   0.00516   0.00000
  39        2PZ         0.00000   0.02252  -0.05340   0.29771   0.31058
  40        3S         -0.02333  -0.09561  -0.05521  -0.00267   0.00000
  41        3PX         0.00000  -0.09508   0.16288   0.03641  -0.07181
  42        3PY        -0.07078   0.14214   0.08208   0.00397   0.00000
  43        3PZ         0.00000   0.01426  -0.03382   0.18855   0.21726
  44        4XX         0.00218   0.01352   0.00781   0.00038  -0.00191
  45        4YY         0.00522  -0.01011  -0.00584  -0.00028   0.00000
  46        4ZZ        -0.00136   0.01352   0.00781   0.00038   0.00191
  47        4XY         0.00000   0.00538  -0.00922  -0.00206   0.00468
  48        4XZ         0.00000   0.00000   0.00000   0.00000   0.00000
  49        4YZ         0.00000  -0.00081   0.00191  -0.01068  -0.01416
  50 4   F  1S         -0.02013  -0.00056   0.00132  -0.00737   0.00000
  51        2S          0.03138  -0.00040   0.00095  -0.00529   0.00000
  52        2PX         0.00000  -0.15013   0.25719   0.05749   0.10265
  53        2PY         0.00000   0.26258   0.15163   0.00734   0.09712
  54        2PZ        -0.37000   0.01584  -0.03756   0.20942   0.00000
  55        3S          0.07826   0.00820  -0.01945   0.10841   0.00000
  56        3PX         0.00000  -0.09508   0.16288   0.03641   0.07181
  57        3PY         0.00000   0.16629   0.09603   0.00465   0.06794
  58        3PZ        -0.23738   0.01219  -0.02891   0.16116   0.00000
  59        4XX        -0.00095  -0.00116   0.00275  -0.01533   0.00611
  60        4YY        -0.00179  -0.00116   0.00275  -0.01533  -0.00611
  61        4ZZ        -0.01751   0.00087  -0.00206   0.01146   0.00000
  62        4XY         0.00000   0.00000   0.00000   0.00000   0.00000
  63        4XZ         0.00000  -0.00538   0.00922   0.00206   0.00468
  64        4YZ         0.00000   0.00942   0.00544   0.00026   0.00443
  65 5   F  1S          0.01413  -0.00372   0.00637   0.00142   0.00000
  66        2S         -0.02203  -0.00267   0.00457   0.00102   0.00000
  67        2PX        -0.25968  -0.10561   0.18092   0.04044   0.00000
  68        2PY         0.00000   0.26258   0.15163   0.00734  -0.09712
  69        2PZ         0.00000   0.02252  -0.05340   0.29771  -0.31058
  70        3S         -0.05492   0.05467  -0.09365  -0.02093   0.00000
  71        3PX        -0.16661  -0.08127   0.13922   0.03112   0.00000
  72        3PY         0.00000   0.16629   0.09603   0.00465  -0.06794
  73        3PZ         0.00000   0.01426  -0.03382   0.18855  -0.21726
  74        4XX         0.01229   0.00578  -0.00990  -0.00221   0.00000
  75        4YY         0.00231  -0.00773   0.01325   0.00296  -0.00202
  76        4ZZ        -0.00039  -0.00773   0.01325   0.00296   0.00202
  77        4XY         0.00000  -0.00942  -0.00544  -0.00026   0.00443
  78        4XZ         0.00000  -0.00081   0.00191  -0.01068   0.01416
  79        4YZ         0.00000   0.00000   0.00000   0.00000   0.00000
  80 6   F  1S          0.01413   0.00372  -0.00637  -0.00142   0.00000
  81        2S         -0.02203   0.00267  -0.00457  -0.00102   0.00000
  82        2PX         0.25968  -0.10561   0.18092   0.04044   0.00000
  83        2PY         0.00000   0.26258   0.15163   0.00734  -0.09712
  84        2PZ         0.00000   0.02252  -0.05340   0.29771  -0.31058
  85        3S         -0.05492  -0.05467   0.09365   0.02093   0.00000
  86        3PX         0.16661  -0.08127   0.13922   0.03112   0.00000
  87        3PY         0.00000   0.16629   0.09603   0.00465  -0.06794
  88        3PZ         0.00000   0.01426  -0.03382   0.18855  -0.21726
  89        4XX         0.01229  -0.00578   0.00990   0.00221   0.00000
  90        4YY         0.00231   0.00773  -0.01325  -0.00296   0.00202
  91        4ZZ        -0.00039   0.00773  -0.01325  -0.00296  -0.00202
  92        4XY         0.00000   0.00942   0.00544   0.00026  -0.00443
  93        4XZ         0.00000   0.00081  -0.00191   0.01068  -0.01416
  94        4YZ         0.00000   0.00000   0.00000   0.00000   0.00000
  95 7   F  1S          0.00600  -0.00650  -0.00375  -0.00018   0.00000
  96        2S         -0.00936  -0.00466  -0.00269  -0.00013   0.00000
  97        2PX         0.00000  -0.15013   0.25719   0.05749  -0.10265
  98        2PY         0.11032   0.18470   0.10666   0.00516   0.00000
  99        2PZ         0.00000   0.02252  -0.05340   0.29771   0.31058
 100        3S         -0.02333   0.09561   0.05521   0.00267   0.00000
 101        3PX         0.00000  -0.09508   0.16288   0.03641  -0.07181
 102        3PY         0.07078   0.14214   0.08208   0.00397   0.00000
 103        3PZ         0.00000   0.01426  -0.03382   0.18855   0.21726
 104        4XX         0.00218  -0.01352  -0.00781  -0.00038   0.00191
 105        4YY         0.00522   0.01011   0.00584   0.00028   0.00000
 106        4ZZ        -0.00136  -0.01352  -0.00781  -0.00038  -0.00191
 107        4XY         0.00000  -0.00538   0.00922   0.00206  -0.00468
 108        4XZ         0.00000   0.00000   0.00000   0.00000   0.00000
 109        4YZ         0.00000   0.00081  -0.00191   0.01068   0.01416
                          31        32        33        34        35
                       (T2U)--O  (T2U)--O  (T1G)--O  (T1G)--O  (T1G)--O
     EIGENVALUES --    -0.46455  -0.46455  -0.42739  -0.42739  -0.42739
   1 1   F  1S          0.00000   0.00000   0.00000   0.00000   0.00000
   2        2S          0.00000   0.00000   0.00000   0.00000   0.00000
   3        2PX        -0.08076   0.31523  -0.00177   0.03261   0.35604
   4        2PY         0.32308   0.05115   0.35591  -0.03368   0.00485
   5        2PZ         0.00000   0.00000   0.00000   0.00000   0.00000
   6        3S          0.00000   0.00000   0.00000   0.00000   0.00000
   7        3PX        -0.05650   0.22052  -0.00118   0.02168   0.23669
   8        3PY         0.22601   0.03578   0.23660  -0.02239   0.00323
   9        3PZ         0.00000   0.00000   0.00000   0.00000   0.00000
  10        4XX         0.00146   0.00236   0.00000   0.00000   0.00000
  11        4YY        -0.00146  -0.00236   0.00000   0.00000   0.00000
  12        4ZZ         0.00000   0.00000   0.00000   0.00000   0.00000
  13        4XY         0.00000   0.00000   0.00000   0.00000   0.00000
  14        4XZ         0.00368  -0.01437   0.00006  -0.00103  -0.01123
  15        4YZ        -0.01473  -0.00233  -0.01123   0.00106  -0.00015
  16 2   S  1S          0.00000   0.00000   0.00000   0.00000   0.00000
  17        2S          0.00000   0.00000   0.00000   0.00000   0.00000
  18        2PX         0.00000   0.00000   0.00000   0.00000   0.00000
  19        2PY         0.00000   0.00000   0.00000   0.00000   0.00000
  20        2PZ         0.00000   0.00000   0.00000   0.00000   0.00000
  21        3S          0.00000   0.00000   0.00000   0.00000   0.00000
  22        3PX         0.00000   0.00000   0.00000   0.00000   0.00000
  23        3PY         0.00000   0.00000   0.00000   0.00000   0.00000
  24        3PZ         0.00000   0.00000   0.00000   0.00000   0.00000
  25        4S          0.00000   0.00000   0.00000   0.00000   0.00000
  26        4PX         0.00000   0.00000   0.00000   0.00000   0.00000
  27        4PY         0.00000   0.00000   0.00000   0.00000   0.00000
  28        4PZ         0.00000   0.00000   0.00000   0.00000   0.00000
  29        5XX         0.00000   0.00000   0.00000   0.00000   0.00000
  30        5YY         0.00000   0.00000   0.00000   0.00000   0.00000
  31        5ZZ         0.00000   0.00000   0.00000   0.00000   0.00000
  32        5XY         0.00000   0.00000   0.00000   0.00000   0.00000
  33        5XZ         0.00000   0.00000   0.00000   0.00000   0.00000
  34        5YZ         0.00000   0.00000   0.00000   0.00000   0.00000
  35 3   F  1S          0.00000   0.00000   0.00000   0.00000   0.00000
  36        2S          0.00000   0.00000   0.00000   0.00000   0.00000
  37        2PX         0.08076  -0.31523   0.03399   0.35445  -0.03230
  38        2PY         0.00000   0.00000   0.00000   0.00000   0.00000
  39        2PZ        -0.07434  -0.12018  -0.35591   0.03368  -0.00485
  40        3S          0.00000   0.00000   0.00000   0.00000   0.00000
  41        3PX         0.05650  -0.22052   0.02259   0.23563  -0.02147
  42        3PY         0.00000   0.00000   0.00000   0.00000   0.00000
  43        3PZ        -0.05200  -0.08407  -0.23660   0.02239  -0.00323
  44        4XX        -0.00636  -0.00101   0.00000   0.00000   0.00000
  45        4YY         0.00000   0.00000   0.00000   0.00000   0.00000
  46        4ZZ         0.00636   0.00101   0.00000   0.00000   0.00000
  47        4XY        -0.00368   0.01437  -0.00107  -0.01118   0.00102
  48        4XZ         0.00000   0.00000   0.00000   0.00000   0.00000
  49        4YZ         0.00339   0.00548   0.01123  -0.00106   0.00015
  50 4   F  1S          0.00000   0.00000   0.00000   0.00000   0.00000
  51        2S          0.00000   0.00000   0.00000   0.00000   0.00000
  52        2PX        -0.08076   0.31523   0.00177  -0.03261  -0.35604
  53        2PY         0.32308   0.05115  -0.35591   0.03368  -0.00485
  54        2PZ         0.00000   0.00000   0.00000   0.00000   0.00000
  55        3S          0.00000   0.00000   0.00000   0.00000   0.00000
  56        3PX        -0.05650   0.22052   0.00118  -0.02168  -0.23669
  57        3PY         0.22601   0.03578  -0.23660   0.02239  -0.00323
  58        3PZ         0.00000   0.00000   0.00000   0.00000   0.00000
  59        4XX        -0.00146  -0.00236   0.00000   0.00000   0.00000
  60        4YY         0.00146   0.00236   0.00000   0.00000   0.00000
  61        4ZZ         0.00000   0.00000   0.00000   0.00000   0.00000
  62        4XY         0.00000   0.00000   0.00000   0.00000   0.00000
  63        4XZ        -0.00368   0.01437   0.00006  -0.00103  -0.01123
  64        4YZ         0.01473   0.00233  -0.01123   0.00106  -0.00015
  65 5   F  1S          0.00000   0.00000   0.00000   0.00000   0.00000
  66        2S          0.00000   0.00000   0.00000   0.00000   0.00000
  67        2PX         0.00000   0.00000   0.00000   0.00000   0.00000
  68        2PY        -0.32308  -0.05115  -0.03399  -0.35445   0.03230
  69        2PZ         0.07434   0.12018   0.00177  -0.03261  -0.35604
  70        3S          0.00000   0.00000   0.00000   0.00000   0.00000
  71        3PX         0.00000   0.00000   0.00000   0.00000   0.00000
  72        3PY        -0.22601  -0.03578  -0.02259  -0.23563   0.02147
  73        3PZ         0.05200   0.08407   0.00118  -0.02168  -0.23669
  74        4XX         0.00000   0.00000   0.00000   0.00000   0.00000
  75        4YY         0.00159  -0.00620   0.00000   0.00000   0.00000
  76        4ZZ        -0.00159   0.00620   0.00000   0.00000   0.00000
  77        4XY         0.01473   0.00233   0.00107   0.01118  -0.00102
  78        4XZ        -0.00339  -0.00548  -0.00006   0.00103   0.01123
  79        4YZ         0.00000   0.00000   0.00000   0.00000   0.00000
  80 6   F  1S          0.00000   0.00000   0.00000   0.00000   0.00000
  81        2S          0.00000   0.00000   0.00000   0.00000   0.00000
  82        2PX         0.00000   0.00000   0.00000   0.00000   0.00000
  83        2PY        -0.32308  -0.05115   0.03399   0.35445  -0.03230
  84        2PZ         0.07434   0.12018  -0.00177   0.03261   0.35604
  85        3S          0.00000   0.00000   0.00000   0.00000   0.00000
  86        3PX         0.00000   0.00000   0.00000   0.00000   0.00000
  87        3PY        -0.22601  -0.03578   0.02259   0.23563  -0.02147
  88        3PZ         0.05200   0.08407  -0.00118   0.02168   0.23669
  89        4XX         0.00000   0.00000   0.00000   0.00000   0.00000
  90        4YY        -0.00159   0.00620   0.00000   0.00000   0.00000
  91        4ZZ         0.00159  -0.00620   0.00000   0.00000   0.00000
  92        4XY        -0.01473  -0.00233   0.00107   0.01118  -0.00102
  93        4XZ         0.00339   0.00548  -0.00006   0.00103   0.01123
  94        4YZ         0.00000   0.00000   0.00000   0.00000   0.00000
  95 7   F  1S          0.00000   0.00000   0.00000   0.00000   0.00000
  96        2S          0.00000   0.00000   0.00000   0.00000   0.00000
  97        2PX         0.08076  -0.31523  -0.03399  -0.35445   0.03230
  98        2PY         0.00000   0.00000   0.00000   0.00000   0.00000
  99        2PZ        -0.07434  -0.12018   0.35591  -0.03368   0.00485
 100        3S          0.00000   0.00000   0.00000   0.00000   0.00000
 101        3PX         0.05650  -0.22052  -0.02259  -0.23563   0.02147
 102        3PY         0.00000   0.00000   0.00000   0.00000   0.00000
 103        3PZ        -0.05200  -0.08407   0.23660  -0.02239   0.00323
 104        4XX         0.00636   0.00101   0.00000   0.00000   0.00000
 105        4YY         0.00000   0.00000   0.00000   0.00000   0.00000
 106        4ZZ        -0.00636  -0.00101   0.00000   0.00000   0.00000
 107        4XY         0.00368  -0.01437  -0.00107  -0.01118   0.00102
 108        4XZ         0.00000   0.00000   0.00000   0.00000   0.00000
 109        4YZ        -0.00339  -0.00548   0.01123  -0.00106   0.00015
                          36        37        38        39        40
                       (A1G)--V  (T1U)--V  (T1U)--V  (T1U)--V  (A1G)--V
     EIGENVALUES --    -0.08826   0.09460   0.09460   0.09460   0.27825
   1 1   F  1S          0.02926  -0.00048   0.05566   0.01681   0.05481
[...]
   59       0.34    S  2- F  5, ( S  2- F  6), ( F  5),  F  6               
   60       0.34   ( S  2- F  5),  S  2- F  6,  F  5, ( F  6)               
   61       0.34   ( S  2- F  3),  S  2- F  7,  F  3, ( F  7)               
 ---------------------------------------------------------------------------
          100.00   * Total *                [* = reference structure]


 Natural Bond Order:  (total/covalent/ionic)                                   

     Atom       1      2      3      4      5      6      7
     ----   ------ ------ ------ ------ ------ ------ ------
   1.  F  t 3.0544 0.8911 0.0000 0.0000 0.0000 0.0000 0.0000
          c   ---  0.3337 0.0000 0.0000 0.0000 0.0000 0.0000              
          i   ---  0.5574 0.0000 0.0000 0.0000 0.0000 0.0000              

   2.  S  t 0.8911 0.3267 0.8911 0.8911 0.8911 0.8911 0.8911
          c 0.3337   ---  0.3337 0.3337 0.3337 0.3337 0.3337              
          i 0.5574   ---  0.5574 0.5574 0.5574 0.5574 0.5574              

   3.  F  t 0.0000 0.8911 3.0544 0.0000 0.0000 0.0000 0.0000
          c 0.0000 0.3337   ---  0.0000 0.0000 0.0000 0.0000              
          i 0.0000 0.5574   ---  0.0000 0.0000 0.0000 0.0000              

   4.  F  t 0.0000 0.8911 0.0000 3.0544 0.0000 0.0000 0.0000
          c 0.0000 0.3337 0.0000   ---  0.0000 0.0000 0.0000              
          i 0.0000 0.5574 0.0000   ---  0.0000 0.0000 0.0000              

   5.  F  t 0.0000 0.8911 0.0000 0.0000 3.0544 0.0000 0.0000
          c 0.0000 0.3337 0.0000 0.0000   ---  0.0000 0.0000              
          i 0.0000 0.5574 0.0000 0.0000   ---  0.0000 0.0000              

   6.  F  t 0.0000 0.8911 0.0000 0.0000 0.0000 3.0544 0.0000
          c 0.0000 0.3337 0.0000 0.0000 0.0000   ---  0.0000              
          i 0.0000 0.5574 0.0000 0.0000 0.0000   ---  0.0000              

   7.  F  t 0.0000 0.8911 0.0000 0.0000 0.0000 0.0000 3.0544
          c 0.0000 0.3337 0.0000 0.0000 0.0000 0.0000   ---               
          i 0.0000 0.5574 0.0000 0.0000 0.0000 0.0000   ---               


 Natural Atomic Valencies:                                                     

                      Co-    Electro-
     Atom  Valency  Valency  Valency
     ----  -------  -------  -------
   1.  F    0.8911   0.3337   0.5574
   2.  S    5.3466   2.0021   3.3446
   3.  F    0.8911   0.3337   0.5574
   4.  F    0.8911   0.3337   0.5574
   5.  F    0.8911   0.3337   0.5574
   6.  F    0.8911   0.3337   0.5574
   7.  F    0.8911   0.3337   0.5574


 $NRTSTR
   STR        ! Wgt = 45.79%
     LONE 1 3 3 3 4 3 5 3 6 3 7 3 END
     BOND S 1 2 S 2 3 S 2 4 S 2 5 S 2 6 S 2 7 END
   END
 $END
 Full mass-weighted force constant matrix:
 Low frequencies ---  -24.1109  -24.1109  -24.1109    0.0011    0.0016    0.0017
 Low frequencies ---  315.3117  315.3117  315.3117
 Diagonal vibrational polarizability:
       12.7413777      12.7413777      12.7413777
 Harmonic frequencies (cm**-1), IR intensities (KM/Mole), Raman scattering
 activities (A**4/AMU), depolarization ratios for plane and unpolarized
 incident light, reduced masses (AMU), force constants (mDyne/A),
 and normal coordinates:
                     1                      2                      3
                    T2U                    T2U                    T2U
 Frequencies --   315.3117               315.3117               315.3117
 Red. masses --    18.9984                18.9984                18.9984
 Frc consts  --     1.1129                 1.1129                 1.1129
 IR Inten    --     0.0000                 0.0000                 0.0000
 Atom AN      X      Y      Z        X      Y      Z        X      Y      Z
   1   9     0.00   0.50   0.00     0.42   0.00   0.00     0.27   0.00   0.00
   2  16     0.00   0.00   0.00     0.00   0.00   0.00     0.00   0.00   0.00
   3   9     0.00   0.00   0.00    -0.42   0.00  -0.27    -0.27   0.00   0.42
   4   9     0.00   0.50   0.00     0.42   0.00   0.00     0.27   0.00   0.00
   5   9     0.00  -0.50   0.00     0.00   0.00   0.27     0.00   0.00  -0.42
   6   9     0.00  -0.50   0.00     0.00   0.00   0.27     0.00   0.00  -0.42
   7   9     0.00   0.00   0.00    -0.42   0.00  -0.27    -0.27   0.00   0.42
                     4                      5                      6
                    T2G                    T2G                    T2G
 Frequencies --   473.6883               473.6883               473.6883
 Red. masses --    18.9984                18.9984                18.9984
 Frc consts  --     2.5116                 2.5116                 2.5116
 IR Inten    --     0.0000                 0.0000                 0.0000
 Atom AN      X      Y      Z        X      Y      Z        X      Y      Z
   1   9     0.00   0.50   0.00     0.00   0.01   0.00    -0.50   0.00   0.00
   2  16     0.00   0.00   0.00     0.00   0.00   0.00     0.00   0.00   0.00
   3   9    -0.01   0.00   0.50     0.50   0.00   0.01     0.00   0.00   0.00
   4   9     0.00  -0.50   0.00     0.00  -0.01   0.00     0.50   0.00   0.00
   5   9     0.00  -0.01   0.00     0.00   0.50   0.00     0.00   0.00  -0.50
   6   9     0.00   0.01   0.00     0.00  -0.50   0.00     0.00   0.00   0.50
   7   9     0.01   0.00  -0.50    -0.50   0.00  -0.01     0.00   0.00   0.00
                     7                      8                      9
                    T1U                    T1U                    T1U
 Frequencies --   557.7031               557.7031               557.7031
 Red. masses --    20.1679                20.1679                20.1679
 Frc consts  --     3.6959                 3.6959                 3.6959
 IR Inten    --    25.4316                25.4316                25.4316
 Atom AN      X      Y      Z        X      Y      Z        X      Y      Z
   1   9     0.35   0.02  -0.01    -0.02   0.35   0.01     0.01  -0.01   0.45
   2  16    -0.30  -0.02  -0.01     0.02  -0.30   0.01    -0.01   0.01   0.30
   3   9     0.35  -0.03   0.01    -0.02  -0.45  -0.01     0.01   0.01  -0.35
   4   9     0.35   0.02  -0.01    -0.02   0.35   0.01     0.01  -0.01   0.45
   5   9    -0.45   0.02   0.01     0.02   0.35  -0.01    -0.01  -0.01  -0.35
   6   9    -0.45   0.02   0.01     0.02   0.35  -0.01    -0.01  -0.01  -0.35
   7   9     0.35  -0.03   0.01    -0.02  -0.45  -0.01     0.01   0.01  -0.35
                    10                     11                     12
                    EG                     EG                     A1G
 Frequencies --   648.2291               648.2291               731.0109
 Red. masses --    18.9984                18.9984                18.9984
 Frc consts  --     4.7035                 4.7035                 5.9816
 IR Inten    --     0.0000                 0.0000                 0.0000
 Atom AN      X      Y      Z        X      Y      Z        X      Y      Z
   1   9     0.00   0.00  -0.41     0.00   0.00  -0.41     0.00   0.00   0.41
   2  16     0.00   0.00   0.00     0.00   0.00   0.00     0.00   0.00   0.00
   3   9     0.00   0.56   0.00     0.00  -0.15   0.00     0.00   0.41   0.00
   4   9     0.00   0.00   0.41     0.00   0.00   0.41     0.00   0.00  -0.41
   5   9    -0.15   0.00   0.00     0.56   0.00   0.00     0.41   0.00   0.00
   6   9     0.15   0.00   0.00    -0.56   0.00   0.00    -0.41   0.00   0.00
   7   9     0.00  -0.56   0.00     0.00   0.15   0.00     0.00  -0.41   0.00
                    13                     14                     15
                    T1U                    T1U                    T1U
 Frequencies --   965.0258               965.0258               965.0258
 Red. masses --    25.6358                25.6358                25.6358
 Frc consts  --    14.0661                14.0661                14.0661
 IR Inten    --   364.7756               364.7756               364.7756
 Atom AN      X      Y      Z        X      Y      Z        X      Y      Z
   1   9     0.00   0.00  -0.49    -0.06   0.00   0.00     0.00  -0.06   0.00
   2  16     0.00  -0.01   0.72     0.72   0.00   0.00     0.00   0.72   0.01
   3   9     0.00   0.00  -0.06    -0.06   0.00   0.00     0.00  -0.49   0.00
   4   9     0.00   0.00  -0.49    -0.06   0.00   0.00     0.00  -0.06   0.00
   5   9     0.00   0.00  -0.06    -0.49   0.00   0.00     0.00  -0.06   0.00
   6   9     0.00   0.00  -0.06    -0.49   0.00   0.00     0.00  -0.06   0.00
   7   9     0.00   0.00  -0.06    -0.06   0.00   0.00     0.00  -0.49   0.00

 -------------------
 - Thermochemistry -
 -------------------
 Temperature   298.150 Kelvin.  Pressure   1.00000 Atm.
 Atom  1 has atomic number  9 and mass  18.99840
 Atom  2 has atomic number 16 and mass  31.97207
 Atom  3 has atomic number  9 and mass  18.99840
 Atom  4 has atomic number  9 and mass  18.99840
 Atom  5 has atomic number  9 and mass  18.99840
 Atom  6 has atomic number  9 and mass  18.99840
 Atom  7 has atomic number  9 and mass  18.99840
 Molecular mass:   145.96249 amu.
 Principal axes and moments of inertia in atomic units:
                           1         2         3
     EIGENVALUES --   694.51142 694.51142 694.51142
           X            0.44721   0.89443   0.00000
           Y            0.89443  -0.44721   0.00000
           Z            0.00000   0.00000   1.00000
 This molecule is a spherical top.
 Rotational symmetry number 24.
 Warning -- assumption of classical behavior for rotation
           may cause significant error
 Rotational temperatures (Kelvin)      0.12471     0.12471     0.12471
 Rotational constants (GHZ):           2.59858     2.59858     2.59858
 Zero-point vibrational energy      53608.6 (Joules/Mol)
                                   12.81276 (Kcal/Mol)
 Warning -- explicit consideration of   9 degrees of freedom as
           vibrations may cause significant error
 Vibrational temperatures:    453.66   453.66   453.66   681.53   681.53
          (Kelvin)            681.53   802.41   802.41   802.41   932.66
                              932.66  1051.76  1388.46  1388.46  1388.46
 
 Zero-point correction=                           0.020418 (Hartree/Particle)
 Thermal correction to Energy=                    0.026240
 Thermal correction to Enthalpy=                  0.027184
 Thermal correction to Gibbs Free Energy=        -0.006526
 Sum of electronic and zero-point Energies=           -997.086325
 Sum of electronic and thermal Energies=              -997.080503
 Sum of electronic and thermal Enthalpies=            -997.079559
 Sum of electronic and thermal Free Energies=         -997.113269
 
                     E (Thermal)             CV                S
                      KCal/Mol        Cal/Mol-Kelvin    Cal/Mol-Kelvin
 Total                   16.466             22.074             70.949
 Electronic               0.000              0.000              0.000
 Translational            0.889              2.981             40.845
 Rotational               0.889              2.981             20.992
 Vibrational             14.689             16.112              9.112
 Vibration  1             0.703              1.644              1.334
 Vibration  2             0.703              1.644              1.334
 Vibration  3             0.703              1.644              1.334
 Vibration  4             0.830              1.308              0.727
 Vibration  5             0.830              1.308              0.727
 Vibration  6             0.830              1.308              0.727
 Vibration  7             0.913              1.123              0.528
 Vibration  8             0.913              1.123              0.528
 Vibration  9             0.913              1.123              0.528
                       Q            Log10(Q)             Ln(Q)
 Total Bot       0.100371D+04          3.001610          6.911463
 Total V=0       0.247410D+13         12.393417         28.536898
 Vib (Bot)       0.167741D-08         -8.775361        -20.206015
 Vib (Bot)  1    0.597841D+00         -0.223414         -0.514430
 Vib (Bot)  2    0.597841D+00         -0.223414         -0.514430
 Vib (Bot)  3    0.597841D+00         -0.223414         -0.514430
 Vib (Bot)  4    0.354979D+00         -0.449798         -1.035697
 Vib (Bot)  5    0.354979D+00         -0.449798         -1.035697
 Vib (Bot)  6    0.354979D+00         -0.449798         -1.035697
 Vib (Bot)  7    0.279306D+00         -0.553919         -1.275447
 Vib (Bot)  8    0.279306D+00         -0.553919         -1.275447
 Vib (Bot)  9    0.279306D+00         -0.553919         -1.275447
 Vib (V=0)       0.413472D+01          0.616446          1.419419
 Vib (V=0)  1    0.127937D+01          0.106995          0.246366
 Vib (V=0)  2    0.127937D+01          0.106995          0.246366
 Vib (V=0)  3    0.127937D+01          0.106995          0.246366
 Vib (V=0)  4    0.111320D+01          0.046572          0.107236
 Vib (V=0)  5    0.111320D+01          0.046572          0.107236
 Vib (V=0)  6    0.111320D+01          0.046572          0.107236
 Vib (V=0)  7    0.107272D+01          0.030488          0.070201
 Vib (V=0)  8    0.107272D+01          0.030488          0.070201
 Vib (V=0)  9    0.107272D+01          0.030488          0.070201
 Electronic      0.100000D+01          0.000000          0.000000
 Translational   0.693134D+08          7.840817         18.054149
 Rotational      0.863285D+04          3.936154          9.063330
 ***** Axes restored to original set *****
 -------------------------------------------------------------------
 Center     Atomic                   Forces (Hartrees/Bohr)
 Number     Number              X              Y              Z
 -------------------------------------------------------------------
    1          9           0.000000000    0.000000000    0.000230993
    2         16           0.000000000    0.000000000    0.000000000
    3          9           0.000000000    0.000230993    0.000000000
    4          9           0.000000000    0.000000000   -0.000230993
    5          9           0.000230993    0.000000000    0.000000000
    6          9          -0.000230993    0.000000000    0.000000000
    7          9           0.000000000   -0.000230993    0.000000000
 -------------------------------------------------------------------
 Cartesian Forces:  Max     0.000230993 RMS     0.000123471

 GradGradGradGradGradGradGradGradGradGradGradGradGradGradGradGradGradGrad
 Berny optimization.
 Search for a local minimum.
 Step number   1 out of a maximum of   2
 All quantities printed in internal units (Hartrees-Bohrs-Radians)
 Second derivative matrix not updated -- analytic derivatives used.
     Eigenvalues ---    0.07148   0.07148   0.07148   0.16132   0.16132
     Eigenvalues ---    0.16132   0.23638   0.23638   0.23638   0.30211
     Eigenvalues ---    0.30211   0.38420   0.95931   0.95931   0.95931
 Angle between quadratic step and forces=   0.00 degrees.
 Linear search not attempted -- first point.
 TrRot=  0.000000  0.000000  0.000000  0.000000  0.000000  0.000000
 Variable       Old X    -DE/DX   Delta X   Delta X   Delta X     New X
                                 (Linear)    (Quad)   (Total)
    X1        0.00000   0.00000   0.00000   0.00000   0.00000   0.00000
    Y1        0.00000   0.00000   0.00000   0.00000   0.00000   0.00000
    Z1        3.02309   0.00023   0.00000   0.00060   0.00060   3.02369
    X2        0.00000   0.00000   0.00000   0.00000   0.00000   0.00000
    Y2        0.00000   0.00000   0.00000   0.00000   0.00000   0.00000
    Z2        0.00000   0.00000   0.00000   0.00000   0.00000   0.00000
    X3        0.00000   0.00000   0.00000   0.00000   0.00000   0.00000
    Y3        3.02309   0.00023   0.00000   0.00060   0.00060   3.02369
    Z3        0.00000   0.00000   0.00000   0.00000   0.00000   0.00000
    X4        0.00000   0.00000   0.00000   0.00000   0.00000   0.00000
    Y4        0.00000   0.00000   0.00000   0.00000   0.00000   0.00000
    Z4       -3.02309  -0.00023   0.00000  -0.00060  -0.00060  -3.02369
    X5        3.02309   0.00023   0.00000   0.00060   0.00060   3.02369
    Y5        0.00000   0.00000   0.00000   0.00000   0.00000   0.00000
    Z5        0.00000   0.00000   0.00000   0.00000   0.00000   0.00000
    X6       -3.02309  -0.00023   0.00000  -0.00060  -0.00060  -3.02369
    Y6        0.00000   0.00000   0.00000   0.00000   0.00000   0.00000
    Z6        0.00000   0.00000   0.00000   0.00000   0.00000   0.00000
    X7        0.00000   0.00000   0.00000   0.00000   0.00000   0.00000
    Y7       -3.02309  -0.00023   0.00000  -0.00060  -0.00060  -3.02369
    Z7        0.00000   0.00000   0.00000   0.00000   0.00000   0.00000
         Item               Value     Threshold  Converged?
 Maximum Force            0.000231     0.000450     YES
 RMS     Force            0.000123     0.000300     YES
 Maximum Displacement     0.000601     0.001800     YES
 RMS     Displacement     0.000321     0.001200     YES
 Predicted change in Energy=-4.166413D-07
 Optimization completed.
    -- Stationary point found.
 GradGradGradGradGradGradGradGradGradGradGradGradGradGradGradGradGradGrad

 1\1\GINC-SUN\Freq\RB3LYP\6-31G(d)\F6S1\XAVIER\03-Oct-2008\0\\# B3LYP/6
 -31G* POP=(FULL,NBOREAD) GFPRINT FREQ GUESS=READ GEOM=CHECK\\InChI=1/F
 6S/c1-7(2,3,4,5)6\\0,1\F,0.,0.,1.5997505965\S,0.,0.,0.\F,0.,1.59975059
 65,0.\F,0.,0.,-1.5997505965\F,1.5997505965,0.,0.\F,-1.5997505965,0.,0.
 \F,0.,-1.5997505965,0.\\Version=x86-Linux-G03RevB.05\State=1-A1G\HF=-9
 97.1067436\RMSD=3.169e-10\RMSF=1.235e-04\Dipole=0.,0.,0.\DipoleDeriv=-
 0.3724603,0.,0.,0.,-0.3724603,0.,0.,0.,-0.8091034,3.1080478,0.,0.,0.,3
 .1080478,0.,0.,0.,3.1080478,-0.3724603,0.,0.,0.,-0.8091034,0.,0.,0.,-0
 .3724603,-0.3724603,0.,0.,0.,-0.3724603,0.,0.,0.,-0.8091034,-0.8091034
 ,0.,0.,0.,-0.3724603,0.,0.,0.,-0.3724603,-0.8091034,0.,0.,0.,-0.372460
 3,0.,0.,0.,-0.3724603,-0.3724603,0.,0.,0.,-0.8091034,0.,0.,0.,-0.37246
 03\Polar=24.1067122,0.,24.1067122,0.,0.,24.1067122\PG=OH [O(S1),3C4(F1
 .F1)]\NImag=0\\0.08597543,0.,0.08597543,0.,0.,0.32598277,-0.07172608,0
 .,0.,0.77272564,0.,-0.07172608,0.,0.,0.77272564,0.,0.,-0.24291066,0.,0
 .,0.77272564,0.01000906,0.,0.,-0.07172608,0.,0.,0.08597543,0.,-0.01989
 542,0.01368144,0.,-0.24291066,0.,0.,0.32598277,0.,0.04043501,-0.019895
 42,0.,0.,-0.07172608,0.,0.,0.08597543,0.00552337,0.,0.,-0.07172608,0.,
 0.,0.01000906,0.,0.,0.08597543,0.,0.00552337,0.,0.,-0.07172608,0.,0.,-
 0.01989542,-0.04043501,0.,0.08597543,0.,0.,-0.00349044,0.,0.,-0.242910
 65,0.,-0.01368144,-0.01989542,0.,0.,0.32598277,-0.01989542,0.,0.013681
 44,-0.24291066,0.,0.,-0.01989542,0.01368144,0.,-0.01989542,0.,-0.01368
 144,0.32598277,0.,0.01000906,0.,0.,-0.07172608,0.,0.04043501,-0.019895
 42,0.,0.,0.01000906,0.,0.,0.08597543,0.04043501,0.,-0.01989542,0.,0.,-
 0.07172608,0.,0.,0.01000906,-0.04043501,0.,-0.01989542,0.,0.,0.0859754
 3,-0.01989542,0.,-0.01368144,-0.24291066,0.,0.,-0.01989542,-0.01368144
 ,0.,-0.01989542,0.,0.01368144,-0.00349044,0.,0.,0.32598277,0.,0.010009
 06,0.,0.,-0.07172608,0.,-0.04043501,-0.01989542,0.,0.,0.01000906,0.,0.
 ,0.00552337,0.,0.,0.08597543,-0.04043501,0.,-0.01989542,0.,0.,-0.07172
 608,0.,0.,0.01000906,0.04043501,0.,-0.01989542,0.,0.,0.00552337,0.,0.,
 0.08597543,0.01000906,0.,0.,-0.07172608,0.,0.,0.00552337,0.,0.,0.01000
 906,0.,0.,-0.01989542,-0.04043501,0.,-0.01989542,0.04043501,0.,0.08597
 543,0.,-0.01989542,-0.01368144,0.,-0.24291066,0.,0.,-0.00349044,0.,0.,
 -0.01989542,0.01368144,-0.01368144,-0.01989542,0.,0.01368144,-0.019895
 42,0.,0.,0.32598277,0.,-0.04043501,-0.01989542,0.,0.,-0.07172608,0.,0.
 ,0.00552337,0.,0.04043501,-0.01989542,0.,0.,0.01000906,0.,0.,0.0100090
 6,0.,0.,0.08597543\\0.,0.,-0.00023099,0.,0.,0.,0.,-0.00023099,0.,0.,0.
 ,0.00023099,-0.00023099,0.,0.,0.00023099,0.,0.,0.,0.00023099,0.\\\@


 Any fool can criticize, condemn, and complain -- and most do.
 -- Dale Carnegie
 Job cpu time:  0 days  0 hours  4 minutes 35.1 seconds.
 File lengths (MBytes):  RWF=     15 Int=      0 D2E=      0 Chk=      5 Scr=      1
 Normal termination of Gaussian 03 at Fri Oct  3 19:12:28 2008.
